<?xml version="1.0" encoding="UTF-8"?>

<!-- generated on Qui 21 Set 2017 14:26:04 BRT by SUMO gui Version 0.30.0
<?xml version="1.0" encoding="UTF-8"?>

<configuration xmlns:xsi="http://www.w3.org/2001/XMLSchema-instance" xsi:noNamespaceSchemaLocation="http://sumo.dlr.de/xsd/sumoConfiguration.xsd">

    <input>
        <net-file value="schutter.net.xml"/>
        <route-files value="schutter.rou.xml"/>
        <additional-files value="schutter_add.xml"/>
    </input>

    <output>
        <tripinfo-output value="tripinfo.xml"/>
    </output>

    <time>
        <begin value="0"/>
        <end value="1500"/>
        <step-length value="1"/>
    </time>

    <processing>
        <time-to-teleport value="-1"/>
    </processing>

    <traci_server>
        <remote-port value="58317"/>
    </traci_server>

</configuration>
-->

<tripinfos xmlns:xsi="http://www.w3.org/2001/XMLSchema-instance" xsi:noNamespaceSchemaLocation="http://sumo.dlr.de/xsd/tripinfo_file.xsd">
    <tripinfo id="newVeh0Car1fc" depart="1.00" departLane="l1_f_0" departPos="0.00" departSpeed="0.00" departDelay="0.00" arrival="221.00" arrivalLane="-l3_f_0" arrivalPos="195.25" arrivalSpeed="10.51" duration="220.00" routeLength="400.00" waitSteps="180" timeLoss="191.20" rerouteNo="0" devices="tripinfo_newVeh0Car1fc" vType="CarA" speedFactor="1.00" vaporized=""/>
    <tripinfo id="newVeh0Car2sc" depart="1.00" departLane="l2_s_0" departPos="0.00" departSpeed="0.00" departDelay="0.00" arrival="221.00" arrivalLane="-l4_s_0" arrivalPos="195.25" arrivalSpeed="10.26" duration="220.00" routeLength="400.00" waitSteps="180" timeLoss="191.23" rerouteNo="0" devices="tripinfo_newVeh0Car2sc" vType="CarA" speedFactor="1.00" vaporized=""/>
    <tripinfo id="newVeh0Car3fc" depart="1.00" departLane="l3_f_0" departPos="0.00" departSpeed="0.00" departDelay="0.00" arrival="221.00" arrivalLane="-l1_f_0" arrivalPos="195.25" arrivalSpeed="10.27" duration="220.00" routeLength="400.00" waitSteps="182" timeLoss="191.28" rerouteNo="0" devices="tripinfo_newVeh0Car3fc" vType="CarA" speedFactor="1.00" vaporized=""/>
    <tripinfo id="newVeh0Car4sc" depart="1.00" departLane="l4_s_0" departPos="0.00" departSpeed="0.00" departDelay="0.00" arrival="221.00" arrivalLane="-l2_s_0" arrivalPos="195.25" arrivalSpeed="10.68" duration="220.00" routeLength="400.00" waitSteps="181" timeLoss="191.10" rerouteNo="0" devices="tripinfo_newVeh0Car4sc" vType="CarA" speedFactor="1.00" vaporized=""/>
    <tripinfo id="newVeh1Car3fc" depart="8.00" departLane="l3_f_0" departPos="0.00" departSpeed="0.00" departDelay="0.00" arrival="223.00" arrivalLane="-l1_f_0" arrivalPos="195.25" arrivalSpeed="10.25" duration="215.00" routeLength="400.00" waitSteps="173" timeLoss="186.23" rerouteNo="0" devices="tripinfo_newVeh1Car3fc" vType="CarA" speedFactor="1.00" vaporized=""/>
    <tripinfo id="newVeh1Car4sc" depart="8.00" departLane="l4_s_0" departPos="0.00" departSpeed="0.00" departDelay="0.00" arrival="223.00" arrivalLane="-l2_s_0" arrivalPos="195.25" arrivalSpeed="11.00" duration="215.00" routeLength="400.00" waitSteps="174" timeLoss="186.06" rerouteNo="0" devices="tripinfo_newVeh1Car4sc" vType="CarA" speedFactor="1.00" vaporized=""/>
    <tripinfo id="newVeh1Car1fc" depart="6.00" departLane="l1_f_0" departPos="0.00" departSpeed="0.00" departDelay="0.00" arrival="224.00" arrivalLane="-l3_f_0" arrivalPos="195.25" arrivalSpeed="10.23" duration="218.00" routeLength="400.00" waitSteps="175" timeLoss="188.80" rerouteNo="0" devices="tripinfo_newVeh1Car1fc" vType="CarA" speedFactor="1.00" vaporized=""/>
    <tripinfo id="newVeh1Car2sc" depart="6.00" departLane="l2_s_0" departPos="0.00" departSpeed="0.00" departDelay="0.00" arrival="224.00" arrivalLane="-l4_s_0" arrivalPos="195.25" arrivalSpeed="10.27" duration="218.00" routeLength="400.00" waitSteps="177" timeLoss="188.87" rerouteNo="0" devices="tripinfo_newVeh1Car2sc" vType="CarA" speedFactor="1.00" vaporized=""/>
    <tripinfo id="newVeh2Car3fc" depart="15.00" departLane="l3_f_0" departPos="0.00" departSpeed="0.00" departDelay="0.00" arrival="225.00" arrivalLane="-l1_f_0" arrivalPos="195.25" arrivalSpeed="10.09" duration="210.00" routeLength="400.00" waitSteps="169" timeLoss="181.19" rerouteNo="0" devices="tripinfo_newVeh2Car3fc" vType="CarA" speedFactor="1.00" vaporized=""/>
    <tripinfo id="newVeh2Car4sc" depart="15.00" departLane="l4_s_0" departPos="0.00" departSpeed="0.00" departDelay="0.00" arrival="225.00" arrivalLane="-l2_s_0" arrivalPos="195.25" arrivalSpeed="11.10" duration="210.00" routeLength="400.00" waitSteps="168" timeLoss="181.46" rerouteNo="0" devices="tripinfo_newVeh2Car4sc" vType="CarA" speedFactor="1.00" vaporized=""/>
    <tripinfo id="newVeh2Car1fc" depart="11.00" departLane="l1_f_0" departPos="0.00" departSpeed="0.00" departDelay="0.00" arrival="226.00" arrivalLane="-l3_f_0" arrivalPos="195.25" arrivalSpeed="10.31" duration="215.00" routeLength="400.00" waitSteps="173" timeLoss="185.81" rerouteNo="0" devices="tripinfo_newVeh2Car1fc" vType="CarA" speedFactor="1.00" vaporized=""/>
    <tripinfo id="newVeh2Car2sc" depart="11.00" departLane="l2_s_0" departPos="0.00" departSpeed="0.00" departDelay="0.00" arrival="226.00" arrivalLane="-l4_s_0" arrivalPos="195.25" arrivalSpeed="10.71" duration="215.00" routeLength="400.00" waitSteps="172" timeLoss="185.76" rerouteNo="0" devices="tripinfo_newVeh2Car2sc" vType="CarA" speedFactor="1.00" vaporized=""/>
    <tripinfo id="newVeh3Car3fc" depart="22.00" departLane="l3_f_0" departPos="0.00" departSpeed="0.00" departDelay="0.00" arrival="227.00" arrivalLane="-l1_f_0" arrivalPos="195.25" arrivalSpeed="10.02" duration="205.00" routeLength="400.00" waitSteps="163" timeLoss="176.18" rerouteNo="0" devices="tripinfo_newVeh3Car3fc" vType="CarA" speedFactor="1.00" vaporized=""/>
    <tripinfo id="newVeh3Car4sc" depart="22.00" departLane="l4_s_0" departPos="0.00" departSpeed="0.00" departDelay="0.00" arrival="227.00" arrivalLane="-l2_s_0" arrivalPos="195.25" arrivalSpeed="11.09" duration="205.00" routeLength="400.00" waitSteps="163" timeLoss="176.50" rerouteNo="0" devices="tripinfo_newVeh3Car4sc" vType="CarA" speedFactor="1.00" vaporized=""/>
    <tripinfo id="newVeh3Car1fc" depart="16.00" departLane="l1_f_0" departPos="0.00" departSpeed="0.00" departDelay="0.00" arrival="228.00" arrivalLane="-l3_f_0" arrivalPos="195.25" arrivalSpeed="10.20" duration="212.00" routeLength="400.00" waitSteps="169" timeLoss="182.78" rerouteNo="0" devices="tripinfo_newVeh3Car1fc" vType="CarA" speedFactor="1.00" vaporized=""/>
    <tripinfo id="newVeh3Car2sc" depart="16.00" departLane="l2_s_0" departPos="0.00" departSpeed="0.00" departDelay="0.00" arrival="228.00" arrivalLane="-l4_s_0" arrivalPos="195.25" arrivalSpeed="9.84" duration="212.00" routeLength="400.00" waitSteps="169" timeLoss="182.66" rerouteNo="0" devices="tripinfo_newVeh3Car2sc" vType="CarA" speedFactor="1.00" vaporized=""/>
    <tripinfo id="newVeh4Car3fc" depart="29.00" departLane="l3_f_0" departPos="0.00" departSpeed="0.00" departDelay="0.00" arrival="229.00" arrivalLane="-l1_f_0" arrivalPos="195.25" arrivalSpeed="9.86" duration="200.00" routeLength="400.00" waitSteps="159" timeLoss="171.48" rerouteNo="0" devices="tripinfo_newVeh4Car3fc" vType="CarA" speedFactor="1.00" vaporized=""/>
    <tripinfo id="newVeh4Car4sc" depart="29.00" departLane="l4_s_0" departPos="0.00" departSpeed="0.00" departDelay="0.00" arrival="229.00" arrivalLane="-l2_s_0" arrivalPos="195.25" arrivalSpeed="10.50" duration="200.00" routeLength="400.00" waitSteps="158" timeLoss="171.22" rerouteNo="0" devices="tripinfo_newVeh4Car4sc" vType="CarA" speedFactor="1.00" vaporized=""/>
    <tripinfo id="newVeh4Car1fc" depart="21.00" departLane="l1_f_0" departPos="0.00" departSpeed="0.00" departDelay="0.00" arrival="230.00" arrivalLane="-l3_f_0" arrivalPos="195.25" arrivalSpeed="10.93" duration="209.00" routeLength="400.00" waitSteps="166" timeLoss="179.81" rerouteNo="0" devices="tripinfo_newVeh4Car1fc" vType="CarA" speedFactor="1.00" vaporized=""/>
    <tripinfo id="newVeh4Car2sc" depart="21.00" departLane="l2_s_0" departPos="0.00" departSpeed="0.00" departDelay="0.00" arrival="230.00" arrivalLane="-l4_s_0" arrivalPos="195.25" arrivalSpeed="10.78" duration="209.00" routeLength="400.00" waitSteps="166" timeLoss="179.64" rerouteNo="0" devices="tripinfo_newVeh4Car2sc" vType="CarA" speedFactor="1.00" vaporized=""/>
    <tripinfo id="newVeh5Car4sc" depart="36.00" departLane="l4_s_0" departPos="0.00" departSpeed="0.00" departDelay="0.00" arrival="231.00" arrivalLane="-l2_s_0" arrivalPos="195.25" arrivalSpeed="10.46" duration="195.00" routeLength="400.00" waitSteps="152" timeLoss="166.18" rerouteNo="0" devices="tripinfo_newVeh5Car4sc" vType="CarA" speedFactor="1.00" vaporized=""/>
    <tripinfo id="newVeh5Car1fc" depart="26.00" departLane="l1_f_0" departPos="0.00" departSpeed="0.00" departDelay="0.00" arrival="232.00" arrivalLane="-l3_f_0" arrivalPos="195.25" arrivalSpeed="9.93" duration="206.00" routeLength="400.00" waitSteps="162" timeLoss="176.94" rerouteNo="0" devices="tripinfo_newVeh5Car1fc" vType="CarA" speedFactor="1.00" vaporized=""/>
    <tripinfo id="newVeh5Car2sc" depart="26.00" departLane="l2_s_0" departPos="0.00" departSpeed="0.00" departDelay="0.00" arrival="232.00" arrivalLane="-l4_s_0" arrivalPos="195.25" arrivalSpeed="10.85" duration="206.00" routeLength="400.00" waitSteps="163" timeLoss="176.69" rerouteNo="0" devices="tripinfo_newVeh5Car2sc" vType="CarA" speedFactor="1.00" vaporized=""/>
    <tripinfo id="newVeh5Car3fc" depart="36.00" departLane="l3_f_0" departPos="0.00" departSpeed="0.00" departDelay="0.00" arrival="232.00" arrivalLane="-l1_f_0" arrivalPos="195.25" arrivalSpeed="10.38" duration="196.00" routeLength="400.00" waitSteps="152" timeLoss="166.54" rerouteNo="0" devices="tripinfo_newVeh5Car3fc" vType="CarA" speedFactor="1.00" vaporized=""/>
    <tripinfo id="newVeh6Car4sc" depart="43.00" departLane="l4_s_0" departPos="0.00" departSpeed="0.00" departDelay="0.00" arrival="233.00" arrivalLane="-l2_s_0" arrivalPos="195.25" arrivalSpeed="10.34" duration="190.00" routeLength="400.00" waitSteps="146" timeLoss="161.20" rerouteNo="0" devices="tripinfo_newVeh6Car4sc" vType="CarA" speedFactor="1.00" vaporized=""/>
    <tripinfo id="newVeh6Car1fc" depart="31.00" departLane="l1_f_0" departPos="0.00" departSpeed="0.00" departDelay="0.00" arrival="234.00" arrivalLane="-l3_f_0" arrivalPos="195.25" arrivalSpeed="10.34" duration="203.00" routeLength="400.00" waitSteps="159" timeLoss="173.85" rerouteNo="0" devices="tripinfo_newVeh6Car1fc" vType="CarA" speedFactor="1.00" vaporized=""/>
    <tripinfo id="newVeh6Car2sc" depart="31.00" departLane="l2_s_0" departPos="0.00" departSpeed="0.00" departDelay="0.00" arrival="234.00" arrivalLane="-l4_s_0" arrivalPos="195.25" arrivalSpeed="10.57" duration="203.00" routeLength="400.00" waitSteps="158" timeLoss="173.94" rerouteNo="0" devices="tripinfo_newVeh6Car2sc" vType="CarA" speedFactor="1.00" vaporized=""/>
    <tripinfo id="newVeh6Car3fc" depart="43.00" departLane="l3_f_0" departPos="0.00" departSpeed="0.00" departDelay="0.00" arrival="234.00" arrivalLane="-l1_f_0" arrivalPos="195.25" arrivalSpeed="10.84" duration="191.00" routeLength="400.00" waitSteps="147" timeLoss="161.52" rerouteNo="0" devices="tripinfo_newVeh6Car3fc" vType="CarA" speedFactor="1.00" vaporized=""/>
    <tripinfo id="newVeh7Car4sc" depart="50.00" departLane="l4_s_0" departPos="0.00" departSpeed="0.00" departDelay="0.00" arrival="235.00" arrivalLane="-l2_s_0" arrivalPos="195.25" arrivalSpeed="10.96" duration="185.00" routeLength="400.00" waitSteps="140" timeLoss="156.10" rerouteNo="0" devices="tripinfo_newVeh7Car4sc" vType="CarA" speedFactor="1.00" vaporized=""/>
    <tripinfo id="newVeh7Car1fc" depart="36.00" departLane="l1_f_0" departPos="0.00" departSpeed="0.00" departDelay="0.00" arrival="236.00" arrivalLane="-l3_f_0" arrivalPos="195.25" arrivalSpeed="10.81" duration="200.00" routeLength="400.00" waitSteps="156" timeLoss="170.91" rerouteNo="0" devices="tripinfo_newVeh7Car1fc" vType="CarA" speedFactor="1.00" vaporized=""/>
    <tripinfo id="newVeh7Car2sc" depart="36.00" departLane="l2_s_0" departPos="0.00" departSpeed="0.00" departDelay="0.00" arrival="236.00" arrivalLane="-l4_s_0" arrivalPos="195.25" arrivalSpeed="10.99" duration="200.00" routeLength="400.00" waitSteps="154" timeLoss="170.64" rerouteNo="0" devices="tripinfo_newVeh7Car2sc" vType="CarA" speedFactor="1.00" vaporized=""/>
    <tripinfo id="newVeh7Car3fc" depart="50.00" departLane="l3_f_0" departPos="0.00" departSpeed="0.00" departDelay="0.00" arrival="236.00" arrivalLane="-l1_f_0" arrivalPos="195.25" arrivalSpeed="10.29" duration="186.00" routeLength="400.00" waitSteps="140" timeLoss="156.71" rerouteNo="0" devices="tripinfo_newVeh7Car3fc" vType="CarA" speedFactor="1.00" vaporized=""/>
    <tripinfo id="newVeh8Car1fc" depart="41.00" departLane="l1_f_0" departPos="0.00" departSpeed="0.00" departDelay="0.00" arrival="238.00" arrivalLane="-l3_f_0" arrivalPos="195.25" arrivalSpeed="9.83" duration="197.00" routeLength="400.00" waitSteps="152" timeLoss="167.83" rerouteNo="0" devices="tripinfo_newVeh8Car1fc" vType="CarA" speedFactor="1.00" vaporized=""/>
    <tripinfo id="newVeh8Car3fc" depart="57.00" departLane="l3_f_0" departPos="0.00" departSpeed="0.00" departDelay="0.00" arrival="238.00" arrivalLane="-l1_f_0" arrivalPos="195.25" arrivalSpeed="10.77" duration="181.00" routeLength="400.00" waitSteps="137" timeLoss="151.69" rerouteNo="0" devices="tripinfo_newVeh8Car3fc" vType="CarA" speedFactor="1.00" vaporized=""/>
    <tripinfo id="newVeh9Car1fc" depart="46.00" departLane="l1_f_0" departPos="0.00" departSpeed="0.00" departDelay="0.00" arrival="240.00" arrivalLane="-l3_f_0" arrivalPos="195.25" arrivalSpeed="10.97" duration="194.00" routeLength="400.00" waitSteps="149" timeLoss="164.70" rerouteNo="0" devices="tripinfo_newVeh9Car1fc" vType="CarA" speedFactor="1.00" vaporized=""/>
    <tripinfo id="newVeh9Car3fc" depart="64.00" departLane="l3_f_0" departPos="0.00" departSpeed="0.00" departDelay="0.00" arrival="240.00" arrivalLane="-l1_f_0" arrivalPos="195.25" arrivalSpeed="10.95" duration="176.00" routeLength="400.00" waitSteps="130" timeLoss="146.56" rerouteNo="0" devices="tripinfo_newVeh9Car3fc" vType="CarA" speedFactor="1.00" vaporized=""/>
    <tripinfo id="newVeh0Car1sc" depart="1.00" departLane="l1_s_0" departPos="0.00" departSpeed="0.00" departDelay="0.00" arrival="241.00" arrivalLane="-l3_s_0" arrivalPos="195.25" arrivalSpeed="11.04" duration="240.00" routeLength="400.00" waitSteps="200" timeLoss="211.20" rerouteNo="0" devices="tripinfo_newVeh0Car1sc" vType="CarA" speedFactor="1.00" vaporized=""/>
    <tripinfo id="newVeh10Car1fc" depart="51.00" departLane="l1_f_0" departPos="0.00" departSpeed="0.00" departDelay="0.00" arrival="242.00" arrivalLane="-l3_f_0" arrivalPos="195.25" arrivalSpeed="10.82" duration="191.00" routeLength="400.00" waitSteps="144" timeLoss="161.78" rerouteNo="0" devices="tripinfo_newVeh10Car1fc" vType="CarA" speedFactor="1.00" vaporized=""/>
    <tripinfo id="newVeh10Car3fc" depart="71.00" departLane="l3_f_0" departPos="0.00" departSpeed="0.00" departDelay="0.00" arrival="242.00" arrivalLane="-l1_f_0" arrivalPos="195.25" arrivalSpeed="10.89" duration="171.00" routeLength="400.00" waitSteps="125" timeLoss="141.67" rerouteNo="0" devices="tripinfo_newVeh10Car3fc" vType="CarA" speedFactor="1.00" vaporized=""/>
    <tripinfo id="newVeh0Car3sc" depart="1.00" departLane="l3_s_0" departPos="0.00" departSpeed="0.00" departDelay="0.00" arrival="242.00" arrivalLane="-l1_s_0" arrivalPos="195.25" arrivalSpeed="10.59" duration="241.00" routeLength="400.00" waitSteps="201" timeLoss="211.74" rerouteNo="0" devices="tripinfo_newVeh0Car3sc" vType="CarA" speedFactor="1.00" vaporized=""/>
    <tripinfo id="newVeh1Car1sc" depart="6.00" departLane="l1_s_0" departPos="0.00" departSpeed="0.00" departDelay="0.00" arrival="243.00" arrivalLane="-l3_s_0" arrivalPos="195.25" arrivalSpeed="10.20" duration="237.00" routeLength="400.00" waitSteps="197" timeLoss="208.12" rerouteNo="0" devices="tripinfo_newVeh1Car1sc" vType="CarA" speedFactor="1.00" vaporized=""/>
    <tripinfo id="newVeh11Car1fc" depart="56.00" departLane="l1_f_0" departPos="0.00" departSpeed="0.00" departDelay="0.00" arrival="244.00" arrivalLane="-l3_f_0" arrivalPos="195.25" arrivalSpeed="10.56" duration="188.00" routeLength="400.00" waitSteps="141" timeLoss="158.85" rerouteNo="0" devices="tripinfo_newVeh11Car1fc" vType="CarA" speedFactor="1.00" vaporized=""/>
    <tripinfo id="newVeh11Car3fc" depart="78.00" departLane="l3_f_0" departPos="0.00" departSpeed="0.00" departDelay="0.00" arrival="244.00" arrivalLane="-l1_f_0" arrivalPos="195.25" arrivalSpeed="10.80" duration="166.00" routeLength="400.00" waitSteps="119" timeLoss="137.03" rerouteNo="0" devices="tripinfo_newVeh11Car3fc" vType="CarA" speedFactor="1.00" vaporized=""/>
    <tripinfo id="newVeh1Car3sc" depart="8.00" departLane="l3_s_0" departPos="0.00" departSpeed="0.00" departDelay="0.00" arrival="244.00" arrivalLane="-l1_s_0" arrivalPos="195.25" arrivalSpeed="10.16" duration="236.00" routeLength="400.00" waitSteps="195" timeLoss="206.76" rerouteNo="0" devices="tripinfo_newVeh1Car3sc" vType="CarA" speedFactor="1.00" vaporized=""/>
    <tripinfo id="newVeh12Car1fc" depart="61.00" departLane="l1_f_0" departPos="0.00" departSpeed="0.00" departDelay="0.00" arrival="246.00" arrivalLane="-l3_f_0" arrivalPos="195.25" arrivalSpeed="10.26" duration="185.00" routeLength="400.00" waitSteps="138" timeLoss="155.77" rerouteNo="0" devices="tripinfo_newVeh12Car1fc" vType="CarA" speedFactor="1.00" vaporized=""/>
    <tripinfo id="newVeh12Car3fc" depart="85.00" departLane="l3_f_0" departPos="0.00" departSpeed="0.00" departDelay="0.00" arrival="246.00" arrivalLane="-l1_f_0" arrivalPos="195.25" arrivalSpeed="11.04" duration="161.00" routeLength="400.00" waitSteps="114" timeLoss="131.99" rerouteNo="0" devices="tripinfo_newVeh12Car3fc" vType="CarA" speedFactor="1.00" vaporized=""/>
    <tripinfo id="newVeh2Car1sc" depart="11.00" departLane="l1_s_0" departPos="0.00" departSpeed="0.00" departDelay="0.00" arrival="246.00" arrivalLane="-l3_s_0" arrivalPos="195.25" arrivalSpeed="10.00" duration="235.00" routeLength="400.00" waitSteps="194" timeLoss="205.66" rerouteNo="0" devices="tripinfo_newVeh2Car1sc" vType="CarA" speedFactor="1.00" vaporized=""/>
    <tripinfo id="newVeh2Car3sc" depart="15.00" departLane="l3_s_0" departPos="0.00" departSpeed="0.00" departDelay="0.00" arrival="246.00" arrivalLane="-l1_s_0" arrivalPos="195.25" arrivalSpeed="10.85" duration="231.00" routeLength="400.00" waitSteps="190" timeLoss="201.74" rerouteNo="0" devices="tripinfo_newVeh2Car3sc" vType="CarA" speedFactor="1.00" vaporized=""/>
    <tripinfo id="newVeh13Car1fc" depart="66.00" departLane="l1_f_0" departPos="0.00" departSpeed="0.00" departDelay="0.00" arrival="248.00" arrivalLane="-l3_f_0" arrivalPos="195.25" arrivalSpeed="10.42" duration="182.00" routeLength="400.00" waitSteps="136" timeLoss="152.90" rerouteNo="0" devices="tripinfo_newVeh13Car1fc" vType="CarA" speedFactor="1.00" vaporized=""/>
    <tripinfo id="newVeh13Car3fc" depart="92.00" departLane="l3_f_0" departPos="0.00" departSpeed="0.00" departDelay="0.00" arrival="248.00" arrivalLane="-l1_f_0" arrivalPos="195.25" arrivalSpeed="10.65" duration="156.00" routeLength="400.00" waitSteps="109" timeLoss="127.01" rerouteNo="0" devices="tripinfo_newVeh13Car3fc" vType="CarA" speedFactor="1.00" vaporized=""/>
    <tripinfo id="newVeh3Car1sc" depart="16.00" departLane="l1_s_0" departPos="0.00" departSpeed="0.00" departDelay="0.00" arrival="248.00" arrivalLane="-l3_s_0" arrivalPos="195.25" arrivalSpeed="10.76" duration="232.00" routeLength="400.00" waitSteps="191" timeLoss="202.76" rerouteNo="0" devices="tripinfo_newVeh3Car1sc" vType="CarA" speedFactor="1.00" vaporized=""/>
    <tripinfo id="newVeh3Car3sc" depart="22.00" departLane="l3_s_0" departPos="0.00" departSpeed="0.00" departDelay="0.00" arrival="248.00" arrivalLane="-l1_s_0" arrivalPos="195.25" arrivalSpeed="10.23" duration="226.00" routeLength="400.00" waitSteps="183" timeLoss="196.68" rerouteNo="0" devices="tripinfo_newVeh3Car3sc" vType="CarA" speedFactor="1.00" vaporized=""/>
    <tripinfo id="newVeh14Car1fc" depart="71.00" departLane="l1_f_0" departPos="0.00" departSpeed="0.00" departDelay="0.00" arrival="250.00" arrivalLane="-l3_f_0" arrivalPos="195.25" arrivalSpeed="9.90" duration="179.00" routeLength="400.00" waitSteps="131" timeLoss="149.78" rerouteNo="0" devices="tripinfo_newVeh14Car1fc" vType="CarA" speedFactor="1.00" vaporized=""/>
    <tripinfo id="newVeh14Car3fc" depart="99.00" departLane="l3_f_0" departPos="0.00" departSpeed="0.00" departDelay="0.00" arrival="250.00" arrivalLane="-l1_f_0" arrivalPos="195.25" arrivalSpeed="10.36" duration="151.00" routeLength="400.00" waitSteps="103" timeLoss="121.98" rerouteNo="0" devices="tripinfo_newVeh14Car3fc" vType="CarA" speedFactor="1.00" vaporized=""/>
    <tripinfo id="newVeh4Car1sc" depart="21.00" departLane="l1_s_0" departPos="0.00" departSpeed="0.00" departDelay="0.00" arrival="250.00" arrivalLane="-l3_s_0" arrivalPos="195.25" arrivalSpeed="10.58" duration="229.00" routeLength="400.00" waitSteps="185" timeLoss="199.73" rerouteNo="0" devices="tripinfo_newVeh4Car1sc" vType="CarA" speedFactor="1.00" vaporized=""/>
    <tripinfo id="newVeh4Car3sc" depart="29.00" departLane="l3_s_0" departPos="0.00" departSpeed="0.00" departDelay="0.00" arrival="250.00" arrivalLane="-l1_s_0" arrivalPos="195.25" arrivalSpeed="10.39" duration="221.00" routeLength="400.00" waitSteps="178" timeLoss="191.57" rerouteNo="0" devices="tripinfo_newVeh4Car3sc" vType="CarA" speedFactor="1.00" vaporized=""/>
    <tripinfo id="newVeh15Car1fc" depart="76.00" departLane="l1_f_0" departPos="0.00" departSpeed="0.00" departDelay="0.00" arrival="252.00" arrivalLane="-l3_f_0" arrivalPos="195.25" arrivalSpeed="10.52" duration="176.00" routeLength="400.00" waitSteps="128" timeLoss="146.90" rerouteNo="0" devices="tripinfo_newVeh15Car1fc" vType="CarA" speedFactor="1.00" vaporized=""/>
    <tripinfo id="newVeh0Car3f" depart="201.00" departLane="l3_f_0" departPos="0.00" departSpeed="0.00" departDelay="0.00" arrival="252.00" arrivalLane="-l1_f_0" arrivalPos="195.25" arrivalSpeed="10.90" duration="51.00" routeLength="400.00" waitSteps="2" timeLoss="21.88" rerouteNo="0" devices="tripinfo_newVeh0Car3f" vType="CarA" speedFactor="1.00" vaporized=""/>
    <tripinfo id="newVeh5Car1sc" depart="26.00" departLane="l1_s_0" departPos="0.00" departSpeed="0.00" departDelay="0.00" arrival="252.00" arrivalLane="-l3_s_0" arrivalPos="195.25" arrivalSpeed="10.15" duration="226.00" routeLength="400.00" waitSteps="181" timeLoss="196.72" rerouteNo="0" devices="tripinfo_newVeh5Car1sc" vType="CarA" speedFactor="1.00" vaporized=""/>
    <tripinfo id="newVeh5Car3sc" depart="36.00" departLane="l3_s_0" departPos="0.00" departSpeed="0.00" departDelay="0.00" arrival="252.00" arrivalLane="-l1_s_0" arrivalPos="195.25" arrivalSpeed="10.38" duration="216.00" routeLength="400.00" waitSteps="172" timeLoss="186.62" rerouteNo="0" devices="tripinfo_newVeh5Car3sc" vType="CarA" speedFactor="1.00" vaporized=""/>
    <tripinfo id="newVeh16Car1fc" depart="81.00" departLane="l1_f_0" departPos="0.00" departSpeed="0.00" departDelay="0.00" arrival="254.00" arrivalLane="-l3_f_0" arrivalPos="195.25" arrivalSpeed="11.05" duration="173.00" routeLength="400.00" waitSteps="124" timeLoss="143.97" rerouteNo="0" devices="tripinfo_newVeh16Car1fc" vType="CarA" speedFactor="1.00" vaporized=""/>
    <tripinfo id="newVeh1Car3f" depart="206.00" departLane="l3_f_0" departPos="0.00" departSpeed="0.00" departDelay="0.00" arrival="254.00" arrivalLane="-l1_f_0" arrivalPos="195.25" arrivalSpeed="9.81" duration="48.00" routeLength="400.00" waitSteps="0" timeLoss="19.16" rerouteNo="0" devices="tripinfo_newVeh1Car3f" vType="CarA" speedFactor="1.00" vaporized=""/>
    <tripinfo id="newVeh6Car1sc" depart="31.00" departLane="l1_s_0" departPos="0.00" departSpeed="0.00" departDelay="0.00" arrival="254.00" arrivalLane="-l3_s_0" arrivalPos="195.25" arrivalSpeed="10.99" duration="223.00" routeLength="400.00" waitSteps="177" timeLoss="193.68" rerouteNo="0" devices="tripinfo_newVeh6Car1sc" vType="CarA" speedFactor="1.00" vaporized=""/>
    <tripinfo id="newVeh6Car3sc" depart="43.00" departLane="l3_s_0" departPos="0.00" departSpeed="0.00" departDelay="0.00" arrival="254.00" arrivalLane="-l1_s_0" arrivalPos="195.25" arrivalSpeed="10.81" duration="211.00" routeLength="400.00" waitSteps="167" timeLoss="181.73" rerouteNo="0" devices="tripinfo_newVeh6Car3sc" vType="CarA" speedFactor="1.00" vaporized=""/>
    <tripinfo id="newVeh7Car1sc" depart="36.00" departLane="l1_s_0" departPos="0.00" departSpeed="0.00" departDelay="0.00" arrival="256.00" arrivalLane="-l3_s_0" arrivalPos="195.25" arrivalSpeed="10.27" duration="220.00" routeLength="400.00" waitSteps="175" timeLoss="190.79" rerouteNo="0" devices="tripinfo_newVeh7Car1sc" vType="CarA" speedFactor="1.00" vaporized=""/>
    <tripinfo id="newVeh7Car3sc" depart="50.00" departLane="l3_s_0" departPos="0.00" departSpeed="0.00" departDelay="0.00" arrival="256.00" arrivalLane="-l1_s_0" arrivalPos="195.25" arrivalSpeed="10.38" duration="206.00" routeLength="400.00" waitSteps="161" timeLoss="177.07" rerouteNo="0" devices="tripinfo_newVeh7Car3sc" vType="CarA" speedFactor="1.00" vaporized=""/>
    <tripinfo id="newVeh8Car1sc" depart="41.00" departLane="l1_s_0" departPos="0.00" departSpeed="0.00" departDelay="0.00" arrival="258.00" arrivalLane="-l3_s_0" arrivalPos="195.25" arrivalSpeed="9.98" duration="217.00" routeLength="400.00" waitSteps="172" timeLoss="187.79" rerouteNo="0" devices="tripinfo_newVeh8Car1sc" vType="CarA" speedFactor="1.00" vaporized=""/>
    <tripinfo id="newVeh8Car3sc" depart="57.00" departLane="l3_s_0" departPos="0.00" departSpeed="0.00" departDelay="0.00" arrival="258.00" arrivalLane="-l1_s_0" arrivalPos="195.25" arrivalSpeed="10.03" duration="201.00" routeLength="400.00" waitSteps="156" timeLoss="172.15" rerouteNo="0" devices="tripinfo_newVeh8Car3sc" vType="CarA" speedFactor="1.00" vaporized=""/>
    <tripinfo id="newVeh9Car1sc" depart="46.00" departLane="l1_s_0" departPos="0.00" departSpeed="0.00" departDelay="0.00" arrival="260.00" arrivalLane="-l3_s_0" arrivalPos="195.25" arrivalSpeed="10.39" duration="214.00" routeLength="400.00" waitSteps="168" timeLoss="184.93" rerouteNo="0" devices="tripinfo_newVeh9Car1sc" vType="CarA" speedFactor="1.00" vaporized=""/>
    <tripinfo id="newVeh9Car3sc" depart="64.00" departLane="l3_s_0" departPos="0.00" departSpeed="0.00" departDelay="0.00" arrival="260.00" arrivalLane="-l1_s_0" arrivalPos="195.25" arrivalSpeed="11.04" duration="196.00" routeLength="400.00" waitSteps="149" timeLoss="166.97" rerouteNo="0" devices="tripinfo_newVeh9Car3sc" vType="CarA" speedFactor="1.00" vaporized=""/>
    <tripinfo id="newVeh0Car2fc" depart="1.00" departLane="l2_f_0" departPos="0.00" departSpeed="0.00" departDelay="0.00" arrival="261.00" arrivalLane="-l4_f_0" arrivalPos="195.25" arrivalSpeed="10.29" duration="260.00" routeLength="400.00" waitSteps="221" timeLoss="231.14" rerouteNo="0" devices="tripinfo_newVeh0Car2fc" vType="CarA" speedFactor="1.00" vaporized=""/>
    <tripinfo id="newVeh0Car4fc" depart="1.00" departLane="l4_f_0" departPos="0.00" departSpeed="0.00" departDelay="0.00" arrival="261.00" arrivalLane="-l2_f_0" arrivalPos="195.25" arrivalSpeed="10.60" duration="260.00" routeLength="400.00" waitSteps="221" timeLoss="231.10" rerouteNo="0" devices="tripinfo_newVeh0Car4fc" vType="CarA" speedFactor="1.00" vaporized=""/>
    <tripinfo id="newVeh10Car1sc" depart="51.00" departLane="l1_s_0" departPos="0.00" departSpeed="0.00" departDelay="0.00" arrival="262.00" arrivalLane="-l3_s_0" arrivalPos="195.25" arrivalSpeed="10.50" duration="211.00" routeLength="400.00" waitSteps="163" timeLoss="181.87" rerouteNo="0" devices="tripinfo_newVeh10Car1sc" vType="CarA" speedFactor="1.00" vaporized=""/>
    <tripinfo id="newVeh10Car3sc" depart="71.00" departLane="l3_s_0" departPos="0.00" departSpeed="0.00" departDelay="0.00" arrival="262.00" arrivalLane="-l1_s_0" arrivalPos="195.25" arrivalSpeed="10.58" duration="191.00" routeLength="400.00" waitSteps="144" timeLoss="162.15" rerouteNo="0" devices="tripinfo_newVeh10Car3sc" vType="CarA" speedFactor="1.00" vaporized=""/>
    <tripinfo id="newVeh11Car1sc" depart="56.00" departLane="l1_s_0" departPos="0.00" departSpeed="0.00" departDelay="0.00" arrival="264.00" arrivalLane="-l3_s_0" arrivalPos="195.25" arrivalSpeed="10.90" duration="208.00" routeLength="400.00" waitSteps="161" timeLoss="178.82" rerouteNo="0" devices="tripinfo_newVeh11Car1sc" vType="CarA" speedFactor="1.00" vaporized=""/>
    <tripinfo id="newVeh11Car3sc" depart="78.00" departLane="l3_s_0" departPos="0.00" departSpeed="0.00" departDelay="0.00" arrival="264.00" arrivalLane="-l1_s_0" arrivalPos="195.25" arrivalSpeed="10.75" duration="186.00" routeLength="400.00" waitSteps="139" timeLoss="157.20" rerouteNo="0" devices="tripinfo_newVeh11Car3sc" vType="CarA" speedFactor="1.00" vaporized=""/>
    <tripinfo id="newVeh1Car2fc" depart="6.00" departLane="l2_f_0" departPos="0.00" departSpeed="0.00" departDelay="0.00" arrival="264.00" arrivalLane="-l4_f_0" arrivalPos="195.25" arrivalSpeed="11.07" duration="258.00" routeLength="400.00" waitSteps="216" timeLoss="228.43" rerouteNo="0" devices="tripinfo_newVeh1Car2fc" vType="CarA" speedFactor="1.00" vaporized=""/>
    <tripinfo id="newVeh1Car4fc" depart="9.00" departLane="l4_f_0" departPos="0.00" departSpeed="0.00" departDelay="0.00" arrival="264.00" arrivalLane="-l2_f_0" arrivalPos="195.25" arrivalSpeed="10.55" duration="255.00" routeLength="400.00" waitSteps="213" timeLoss="225.64" rerouteNo="0" devices="tripinfo_newVeh1Car4fc" vType="CarA" speedFactor="1.00" vaporized=""/>