<?xml version="1.0" encoding="UTF-8"?>

<!-- generated on 25/02/2018 20:17:46 by SUMO gui Version 0.32.0
<?xml version="1.0" encoding="UTF-8"?>

<configuration xmlns:xsi="http://www.w3.org/2001/XMLSchema-instance" xsi:noNamespaceSchemaLocation="http://sumo.dlr.de/xsd/sumoConfiguration.xsd">

    <input>
        <net-file value="data/schutter.net.xml"/>
        <route-files value="data/routes.rou.xml"/>
    </input>

    <output>
        <tripinfo-output value="tripinfo.xml"/>
    </output>

    <time>
        <begin value="0"/>
        <end value="1500"/>
        <step-length value="1"/>
    </time>

    <processing>
        <time-to-teleport value="-1"/>
    </processing>

    <traci_server>
        <remote-port value="56345"/>
    </traci_server>

    <gui_only>
        <tracker-interval value="1"/>
    </gui_only>

</configuration>
-->

<tripinfos xmlns:xsi="http://www.w3.org/2001/XMLSchema-instance" xsi:noNamespaceSchemaLocation="http://sumo.dlr.de/xsd/tripinfo_file.xsd">
    <tripinfo id="8" depart="8.00" departLane="-l2_4_0" departPos="5.10" departSpeed="0.00" departDelay="0.00" arrival="18.00" arrivalLane="-l2_4_0" arrivalPos="95.25" arrivalSpeed="13.58" duration="10.00" routeLength="90.15" waitSteps="0" timeLoss="2.96" rerouteNo="0" devices="tripinfo_8" vType="DEFAULT_VEHTYPE" speedFactor="1.00" vaporized=""/>
    <tripinfo id="38" depart="38.00" departLane="-l3_3_0" departPos="5.10" departSpeed="0.00" departDelay="0.00" arrival="48.00" arrivalLane="-l3_3_0" arrivalPos="95.25" arrivalSpeed="13.88" duration="10.00" routeLength="90.15" waitSteps="0" timeLoss="3.19" rerouteNo="0" devices="tripinfo_38" vType="DEFAULT_VEHTYPE" speedFactor="1.00" vaporized=""/>
    <tripinfo id="26" depart="27.00" departLane="l3_2_0" departPos="5.10" departSpeed="0.00" departDelay="1.00" arrival="57.00" arrivalLane="-l1_2_0" arrivalPos="95.25" arrivalSpeed="12.83" duration="30.00" routeLength="194.90" waitSteps="6" timeLoss="17.87" rerouteNo="0" devices="tripinfo_26" vType="DEFAULT_VEHTYPE" speedFactor="1.00" vaporized=""/>
    <tripinfo id="15" depart="15.00" departLane="l2_1_0" departPos="5.10" departSpeed="0.00" departDelay="0.00" arrival="57.00" arrivalLane="-l4_1_0" arrivalPos="95.25" arrivalSpeed="10.31" duration="42.00" routeLength="194.90" waitSteps="17" timeLoss="27.90" rerouteNo="0" devices="tripinfo_15" vType="DEFAULT_VEHTYPE" speedFactor="1.00" vaporized=""/>
    <tripinfo id="49" depart="49.00" departLane="l3_3_0" departPos="5.10" departSpeed="0.00" departDelay="0.00" arrival="67.00" arrivalLane="-l1_3_0" arrivalPos="95.25" arrivalSpeed="13.81" duration="18.00" routeLength="194.90" waitSteps="0" timeLoss="3.59" rerouteNo="0" devices="tripinfo_49" vType="DEFAULT_VEHTYPE" speedFactor="1.00" vaporized=""/>
    <tripinfo id="63" depart="63.00" departLane="l1_4_0" departPos="5.10" departSpeed="0.00" departDelay="0.00" arrival="73.00" arrivalLane="l1_4_0" arrivalPos="95.25" arrivalSpeed="13.29" duration="10.00" routeLength="90.15" waitSteps="0" timeLoss="3.46" rerouteNo="0" devices="tripinfo_63" vType="DEFAULT_VEHTYPE" speedFactor="1.00" vaporized=""/>
    <tripinfo id="11" depart="11.00" departLane="-l4_2_0" departPos="5.10" departSpeed="0.00" departDelay="0.00" arrival="73.00" arrivalLane="-l2_1_0" arrivalPos="95.25" arrivalSpeed="10.05" duration="62.00" routeLength="681.45" waitSteps="0" timeLoss="10.83" rerouteNo="0" devices="tripinfo_11" vType="DEFAULT_VEHTYPE" speedFactor="1.00" vaporized=""/>
    <tripinfo id="27" depart="28.00" departLane="l3_4_0" departPos="5.10" departSpeed="0.00" departDelay="1.00" arrival="74.00" arrivalLane="-l2_3_0" arrivalPos="95.25" arrivalSpeed="13.30" duration="46.00" routeLength="390.50" waitSteps="7" timeLoss="17.54" rerouteNo="0" devices="tripinfo_27" vType="DEFAULT_VEHTYPE" speedFactor="1.00" vaporized=""/>
    <tripinfo id="41" depart="41.00" departLane="-l4_2_0" departPos="5.10" departSpeed="0.00" departDelay="0.00" arrival="93.00" arrivalLane="l2_4_0" arrivalPos="95.25" arrivalSpeed="5.45" duration="52.00" routeLength="185.50" waitSteps="29" timeLoss="37.00" rerouteNo="0" devices="tripinfo_41" vType="DEFAULT_VEHTYPE" speedFactor="1.00" vaporized=""/>
    <tripinfo id="66" depart="66.00" departLane="l3_2_0" departPos="5.10" departSpeed="0.00" departDelay="0.00" arrival="93.00" arrivalLane="l3_1_0" arrivalPos="95.25" arrivalSpeed="6.25" duration="27.00" routeLength="290.25" waitSteps="0" timeLoss="9.90" rerouteNo="0" devices="tripinfo_66" vType="DEFAULT_VEHTYPE" speedFactor="1.00" vaporized=""/>
    <tripinfo id="52" depart="53.00" departLane="-l1_4_0" departPos="5.10" departSpeed="0.00" departDelay="1.00" arrival="93.00" arrivalLane="-l3_1_0" arrivalPos="95.25" arrivalSpeed="9.87" duration="40.00" routeLength="481.35" waitSteps="0" timeLoss="5.30" rerouteNo="0" devices="tripinfo_52" vType="DEFAULT_VEHTYPE" speedFactor="1.00" vaporized=""/>
    <tripinfo id="85" depart="85.00" departLane="l1_4_0" departPos="5.10" departSpeed="0.00" departDelay="0.00" arrival="95.00" arrivalLane="l1_4_0" arrivalPos="95.25" arrivalSpeed="13.54" duration="10.00" routeLength="90.15" waitSteps="0" timeLoss="3.02" rerouteNo="0" devices="tripinfo_85" vType="DEFAULT_VEHTYPE" speedFactor="1.00" vaporized=""/>
    <tripinfo id="46" depart="46.00" departLane="-l3_1_0" departPos="5.10" departSpeed="0.00" departDelay="0.00" arrival="96.00" arrivalLane="l2_4_0" arrivalPos="95.25" arrivalSpeed="7.52" duration="50.00" routeLength="381.10" waitSteps="8" timeLoss="19.06" rerouteNo="0" devices="tripinfo_46" vType="DEFAULT_VEHTYPE" speedFactor="1.00" vaporized=""/>
    <tripinfo id="28" depart="28.00" departLane="l1_1_0" departPos="5.10" departSpeed="0.00" departDelay="0.00" arrival="100.00" arrivalLane="-l4_3_0" arrivalPos="95.25" arrivalSpeed="12.60" duration="72.00" routeLength="390.50" waitSteps="32" timeLoss="43.87" rerouteNo="0" devices="tripinfo_28" vType="DEFAULT_VEHTYPE" speedFactor="1.00" vaporized=""/>
    <tripinfo id="24" depart="24.00" departLane="l3_2_0" departPos="5.10" departSpeed="0.00" departDelay="0.00" arrival="101.00" arrivalLane="-l2_1_0" arrivalPos="95.25" arrivalSpeed="10.34" duration="77.00" routeLength="390.50" waitSteps="34" timeLoss="50.81" rerouteNo="0" devices="tripinfo_24" vType="DEFAULT_VEHTYPE" speedFactor="1.00" vaporized=""/>
    <tripinfo id="25" depart="25.00" departLane="l3_4_0" departPos="5.10" departSpeed="0.00" departDelay="0.00" arrival="102.00" arrivalLane="-l2_2_0" arrivalPos="95.25" arrivalSpeed="10.22" duration="77.00" routeLength="390.50" waitSteps="32" timeLoss="48.67" rerouteNo="0" devices="tripinfo_25" vType="DEFAULT_VEHTYPE" speedFactor="1.00" vaporized=""/>
    <tripinfo id="56" depart="57.00" departLane="l2_3_0" departPos="5.10" departSpeed="0.00" departDelay="1.00" arrival="102.00" arrivalLane="-l1_3_0" arrivalPos="95.25" arrivalSpeed="12.59" duration="45.00" routeLength="190.40" waitSteps="22" timeLoss="30.54" rerouteNo="0" devices="tripinfo_56" vType="DEFAULT_VEHTYPE" speedFactor="1.00" vaporized=""/>
    <tripinfo id="82" depart="82.00" departLane="l4_2_0" departPos="5.10" departSpeed="0.00" departDelay="0.00" arrival="103.00" arrivalLane="-l3_2_0" arrivalPos="95.25" arrivalSpeed="10.90" duration="21.00" routeLength="190.40" waitSteps="0" timeLoss="6.48" rerouteNo="0" devices="tripinfo_82" vType="DEFAULT_VEHTYPE" speedFactor="1.00" vaporized=""/>
    <tripinfo id="68" depart="68.00" departLane="-l4_1_0" departPos="5.10" departSpeed="0.00" departDelay="0.00" arrival="104.00" arrivalLane="-l4_3_0" arrivalPos="95.25" arrivalSpeed="12.63" duration="36.00" routeLength="290.25" waitSteps="5" timeLoss="13.34" rerouteNo="0" devices="tripinfo_68" vType="DEFAULT_VEHTYPE" speedFactor="1.00" vaporized=""/>
    <tripinfo id="79" depart="79.00" departLane="l2_2_0" departPos="5.10" departSpeed="0.00" departDelay="0.00" arrival="106.00" arrivalLane="-l4_2_0" arrivalPos="95.25" arrivalSpeed="10.79" duration="27.00" routeLength="194.90" waitSteps="1" timeLoss="12.06" rerouteNo="0" devices="tripinfo_79" vType="DEFAULT_VEHTYPE" speedFactor="1.00" vaporized=""/>
    <tripinfo id="6" depart="6.00" departLane="l3_3_0" departPos="5.10" departSpeed="0.00" departDelay="0.00" arrival="106.00" arrivalLane="-l4_4_0" arrivalPos="95.25" arrivalSpeed="13.09" duration="100.00" routeLength="781.70" waitSteps="26" timeLoss="42.07" rerouteNo="0" devices="tripinfo_6" vType="DEFAULT_VEHTYPE" speedFactor="1.00" vaporized=""/>
    <tripinfo id="37" depart="37.00" departLane="-l1_4_0" departPos="5.10" departSpeed="0.00" departDelay="0.00" arrival="110.00" arrivalLane="-l4_4_0" arrivalPos="95.25" arrivalSpeed="13.19" duration="73.00" routeLength="877.05" waitSteps="0" timeLoss="8.55" rerouteNo="0" devices="tripinfo_37" vType="DEFAULT_VEHTYPE" speedFactor="1.00" vaporized=""/>
    <tripinfo id="76" depart="76.00" departLane="l2_2_0" departPos="5.10" departSpeed="0.00" departDelay="0.00" arrival="117.00" arrivalLane="-l1_1_0" arrivalPos="95.25" arrivalSpeed="10.71" duration="41.00" routeLength="390.50" waitSteps="2" timeLoss="14.71" rerouteNo="0" devices="tripinfo_76" vType="DEFAULT_VEHTYPE" speedFactor="1.00" vaporized=""/>
    <tripinfo id="87" depart="87.00" departLane="l1_1_0" departPos="5.10" departSpeed="0.00" departDelay="0.00" arrival="122.00" arrivalLane="-l1_3_0" arrivalPos="95.25" arrivalSpeed="12.68" duration="35.00" routeLength="386.00" waitSteps="0" timeLoss="6.40" rerouteNo="0" devices="tripinfo_87" vType="DEFAULT_VEHTYPE" speedFactor="1.00" vaporized=""/>
    <tripinfo id="132" depart="132.00" departLane="l3_3_0" departPos="5.10" departSpeed="0.00" departDelay="0.00" arrival="144.00" arrivalLane="l3_3_0" arrivalPos="95.25" arrivalSpeed="9.95" duration="12.00" routeLength="90.15" waitSteps="0" timeLoss="5.48" rerouteNo="0" devices="tripinfo_132" vType="DEFAULT_VEHTYPE" speedFactor="1.00" vaporized=""/>
    <tripinfo id="77" depart="77.00" departLane="-l1_4_0" departPos="5.10" departSpeed="0.00" departDelay="0.00" arrival="145.00" arrivalLane="-l1_3_0" arrivalPos="95.25" arrivalSpeed="13.00" duration="68.00" routeLength="290.25" waitSteps="36" timeLoss="46.62" rerouteNo="0" devices="tripinfo_77" vType="DEFAULT_VEHTYPE" speedFactor="1.00" vaporized=""/>
    <tripinfo id="48" depart="48.00" departLane="l2_2_0" departPos="5.10" departSpeed="0.00" departDelay="0.00" arrival="148.00" arrivalLane="-l1_3_0" arrivalPos="95.25" arrivalSpeed="13.65" duration="100.00" routeLength="590.60" waitSteps="40" timeLoss="57.75" rerouteNo="0" devices="tripinfo_48" vType="DEFAULT_VEHTYPE" speedFactor="1.00" vaporized=""/>
    <tripinfo id="123" depart="125.00" departLane="l3_4_0" departPos="5.10" departSpeed="0.00" departDelay="2.00" arrival="157.00" arrivalLane="l3_3_0" arrivalPos="95.25" arrivalSpeed="13.20" duration="32.00" routeLength="290.25" waitSteps="0" timeLoss="10.58" rerouteNo="0" devices="tripinfo_123" vType="DEFAULT_VEHTYPE" speedFactor="1.00" vaporized=""/>
    <tripinfo id="116" depart="116.00" departLane="-l3_1_0" departPos="5.10" departSpeed="0.00" departDelay="0.00" arrival="161.00" arrivalLane="-l3_2_0" arrivalPos="95.25" arrivalSpeed="10.79" duration="45.00" routeLength="290.25" waitSteps="7" timeLoss="20.15" rerouteNo="0" devices="tripinfo_116" vType="DEFAULT_VEHTYPE" speedFactor="1.00" vaporized=""/>
    <tripinfo id="146" depart="151.00" departLane="-l4_2_0" departPos="5.10" departSpeed="0.00" departDelay="5.00" arrival="162.00" arrivalLane="-l4_2_0" arrivalPos="95.25" arrivalSpeed="10.43" duration="11.00" routeLength="90.15" waitSteps="0" timeLoss="2.56" rerouteNo="0" devices="tripinfo_146" vType="DEFAULT_VEHTYPE" speedFactor="1.00" vaporized=""/>
    <tripinfo id="122" depart="122.00" departLane="l3_4_0" departPos="5.10" departSpeed="0.00" departDelay="0.00" arrival="163.00" arrivalLane="-l2_3_0" arrivalPos="95.25" arrivalSpeed="13.86" duration="41.00" routeLength="390.50" waitSteps="1" timeLoss="12.28" rerouteNo="0" devices="tripinfo_122" vType="DEFAULT_VEHTYPE" speedFactor="1.00" vaporized=""/>
    <tripinfo id="65" depart="65.00" departLane="l3_3_0" departPos="5.10" departSpeed="0.00" departDelay="0.00" arrival="165.00" arrivalLane="-l3_2_0" arrivalPos="95.25" arrivalSpeed="10.87" duration="100.00" routeLength="586.10" waitSteps="44" timeLoss="56.30" rerouteNo="0" devices="tripinfo_65" vType="DEFAULT_VEHTYPE" speedFactor="1.00" vaporized=""/>
    <tripinfo id="54" depart="54.00" departLane="l4_3_0" departPos="5.10" departSpeed="0.00" departDelay="0.00" arrival="167.00" arrivalLane="-l4_2_0" arrivalPos="95.25" arrivalSpeed="9.88" duration="113.00" routeLength="586.10" waitSteps="50" timeLoss="68.98" rerouteNo="0" devices="tripinfo_54" vType="DEFAULT_VEHTYPE" speedFactor="1.00" vaporized=""/>
    <tripinfo id="29" depart="29.00" departLane="-l4_2_0" departPos="5.10" departSpeed="0.00" departDelay="0.00" arrival="169.00" arrivalLane="l1_2_0" arrivalPos="95.25" arrivalSpeed="12.67" duration="140.00" routeLength="772.30" waitSteps="67" timeLoss="82.77" rerouteNo="0" devices="tripinfo_29" vType="DEFAULT_VEHTYPE" speedFactor="1.00" vaporized=""/>
    <tripinfo id="141" depart="141.00" departLane="l3_3_0" departPos="5.10" departSpeed="0.00" departDelay="0.00" arrival="174.00" arrivalLane="-l3_1_0" arrivalPos="95.25" arrivalSpeed="10.70" duration="33.00" routeLength="386.00" waitSteps="0" timeLoss="5.20" rerouteNo="0" devices="tripinfo_141" vType="DEFAULT_VEHTYPE" speedFactor="1.00" vaporized=""/>
    <tripinfo id="144" depart="144.00" departLane="-l2_3_0" departPos="5.10" departSpeed="0.00" departDelay="0.00" arrival="177.00" arrivalLane="l1_2_0" arrivalPos="95.25" arrivalSpeed="12.86" duration="33.00" routeLength="381.10" waitSteps="0" timeLoss="5.46" rerouteNo="0" devices="tripinfo_144" vType="DEFAULT_VEHTYPE" speedFactor="1.00" vaporized=""/>
    <tripinfo id="102" depart="102.00" departLane="l3_4_0" departPos="5.10" departSpeed="0.00" departDelay="0.00" arrival="177.00" arrivalLane="-l2_1_0" arrivalPos="95.25" arrivalSpeed="10.52" duration="75.00" routeLength="590.60" waitSteps="20" timeLoss="32.21" rerouteNo="0" devices="tripinfo_102" vType="DEFAULT_VEHTYPE" speedFactor="1.00" vaporized=""/>
    <tripinfo id="170" depart="170.00" departLane="l4_1_0" departPos="5.10" departSpeed="0.00" departDelay="0.00" arrival="180.00" arrivalLane="l4_1_0" arrivalPos="95.25" arrivalSpeed="18.96" duration="10.00" routeLength="90.15" waitSteps="0" timeLoss="4.40" rerouteNo="0" devices="tripinfo_170" vType="DEFAULT_VEHTYPE" speedFactor="1.00" vaporized=""/>
    <tripinfo id="117" depart="117.00" departLane="l3_3_0" departPos="5.10" departSpeed="0.00" departDelay="0.00" arrival="182.00" arrivalLane="-l4_2_0" arrivalPos="95.25" arrivalSpeed="9.99" duration="65.00" routeLength="581.60" waitSteps="10" timeLoss="21.65" rerouteNo="0" devices="tripinfo_117" vType="DEFAULT_VEHTYPE" speedFactor="1.00" vaporized=""/>
    <tripinfo id="19" depart="19.00" departLane="l3_4_0" departPos="5.10" departSpeed="0.00" departDelay="0.00" arrival="183.00" arrivalLane="l2_4_0" arrivalPos="95.25" arrivalSpeed="5.64" duration="164.00" routeLength="877.05" waitSteps="77" timeLoss="99.43" rerouteNo="0" devices="tripinfo_19" vType="DEFAULT_VEHTYPE" speedFactor="1.00" vaporized=""/>
    <tripinfo id="155" depart="155.00" departLane="l4_4_0" departPos="5.10" departSpeed="0.00" departDelay="0.00" arrival="190.00" arrivalLane="-l3_4_0" arrivalPos="95.25" arrivalSpeed="13.86" duration="35.00" routeLength="190.40" waitSteps="11" timeLoss="20.71" rerouteNo="0" devices="tripinfo_155" vType="DEFAULT_VEHTYPE" speedFactor="1.00" vaporized=""/>
    <tripinfo id="112" depart="112.00" departLane="l4_4_0" departPos="5.10" departSpeed="0.00" departDelay="0.00" arrival="191.00" arrivalLane="-l3_2_0" arrivalPos="95.25" arrivalSpeed="9.86" duration="79.00" routeLength="390.50" waitSteps="41" timeLoss="51.10" rerouteNo="0" devices="tripinfo_112" vType="DEFAULT_VEHTYPE" speedFactor="1.00" vaporized=""/>
    <tripinfo id="161" depart="161.00" departLane="l4_2_0" departPos="5.10" departSpeed="0.00" departDelay="0.00" arrival="193.00" arrivalLane="-l3_2_0" arrivalPos="95.25" arrivalSpeed="10.23" duration="32.00" routeLength="190.40" waitSteps="7" timeLoss="18.20" rerouteNo="0" devices="tripinfo_161" vType="DEFAULT_VEHTYPE" speedFactor="1.00" vaporized=""/>
    <tripinfo id="171" depart="171.00" departLane="l1_1_0" departPos="5.10" departSpeed="0.00" departDelay="0.00" arrival="194.00" arrivalLane="-l3_1_0" arrivalPos="95.25" arrivalSpeed="10.41" duration="23.00" routeLength="194.90" waitSteps="0" timeLoss="8.23" rerouteNo="0" devices="tripinfo_171" vType="DEFAULT_VEHTYPE" speedFactor="1.00" vaporized=""/>
    <tripinfo id="124" depart="124.00" departLane="l2_2_0" departPos="5.10" departSpeed="0.00" departDelay="0.00" arrival="196.00" arrivalLane="l3_1_0" arrivalPos="95.25" arrivalSpeed="19.19" duration="72.00" routeLength="285.75" waitSteps="44" timeLoss="54.44" rerouteNo="0" devices="tripinfo_124" vType="DEFAULT_VEHTYPE" speedFactor="1.00" vaporized=""/>
    <tripinfo id="42" depart="43.00" departLane="l1_1_0" departPos="5.10" departSpeed="0.00" departDelay="1.00" arrival="198.00" arrivalLane="-l4_4_0" arrivalPos="95.25" arrivalSpeed="12.80" duration="155.00" routeLength="590.60" waitSteps="82" timeLoss="110.15" rerouteNo="0" devices="tripinfo_42" vType="DEFAULT_VEHTYPE" speedFactor="1.00" vaporized=""/>
    <tripinfo id="147" depart="167.00" departLane="l2_4_0" departPos="5.10" departSpeed="0.00" departDelay="20.00" arrival="199.00" arrivalLane="l2_4_0" arrivalPos="95.25" arrivalSpeed="13.34" duration="32.00" routeLength="90.15" waitSteps="13" timeLoss="25.36" rerouteNo="0" devices="tripinfo_147" vType="DEFAULT_VEHTYPE" speedFactor="1.00" vaporized=""/>
    <tripinfo id="121" depart="123.00" departLane="l1_2_0" departPos="5.10" departSpeed="0.00" departDelay="2.00" arrival="203.00" arrivalLane="-l1_4_0" arrivalPos="95.25" arrivalSpeed="13.42" duration="80.00" routeLength="386.00" waitSteps="29" timeLoss="50.16" rerouteNo="0" devices="tripinfo_121" vType="DEFAULT_VEHTYPE" speedFactor="1.00" vaporized=""/>
    <tripinfo id="189" depart="189.00" departLane="l4_4_0" departPos="5.10" departSpeed="0.00" departDelay="0.00" arrival="207.00" arrivalLane="-l3_4_0" arrivalPos="95.25" arrivalSpeed="13.63" duration="18.00" routeLength="190.40" waitSteps="0" timeLoss="3.94" rerouteNo="0" devices="tripinfo_189" vType="DEFAULT_VEHTYPE" speedFactor="1.00" vaporized=""/>
    <tripinfo id="182" depart="182.00" departLane="-l4_2_0" departPos="5.10" departSpeed="0.00" departDelay="0.00" arrival="209.00" arrivalLane="-l4_4_0" arrivalPos="95.25" arrivalSpeed="13.56" duration="27.00" routeLength="290.25" waitSteps="0" timeLoss="4.14" rerouteNo="0" devices="tripinfo_182" vType="DEFAULT_VEHTYPE" speedFactor="1.00" vaporized=""/>
    <tripinfo id="163" depart="163.00" departLane="l2_2_0" departPos="5.10" departSpeed="0.00" departDelay="0.00" arrival="210.00" arrivalLane="-l1_1_0" arrivalPos="95.25" arrivalSpeed="10.90" duration="47.00" routeLength="390.50" waitSteps="7" timeLoss="20.85" rerouteNo="0" devices="tripinfo_163" vType="DEFAULT_VEHTYPE" speedFactor="1.00" vaporized=""/>
    <tripinfo id="192" depart="192.00" departLane="l2_2_0" departPos="5.10" departSpeed="0.00" departDelay="0.00" arrival="215.00" arrivalLane="l3_1_0" arrivalPos="95.25" arrivalSpeed="18.49" duration="23.00" routeLength="285.75" waitSteps="0" timeLoss="5.36" rerouteNo="0" devices="tripinfo_192" vType="DEFAULT_VEHTYPE" speedFactor="1.00" vaporized=""/>
    <tripinfo id="133" depart="133.00" departLane="l2_4_0" departPos="5.10" departSpeed="0.00" departDelay="0.00" arrival="231.00" arrivalLane="l3_3_0" arrivalPos="95.25" arrivalSpeed="7.15" duration="98.00" routeLength="285.75" waitSteps="63" timeLoss="77.25" rerouteNo="0" devices="tripinfo_133" vType="DEFAULT_VEHTYPE" speedFactor="1.00" vaporized=""/>
    <tripinfo id="172" depart="172.00" departLane="-l1_4_0" departPos="5.10" departSpeed="0.00" departDelay="0.00" arrival="235.00" arrivalLane="-l2_3_0" arrivalPos="95.25" arrivalSpeed="12.77" duration="63.00" routeLength="285.75" waitSteps="34" timeLoss="42.04" rerouteNo="0" devices="tripinfo_172" vType="DEFAULT_VEHTYPE" speedFactor="1.00" vaporized=""/>
    <tripinfo id="40" depart="40.00" departLane="l1_1_0" departPos="5.10" departSpeed="0.00" departDelay="0.00" arrival="236.00" arrivalLane="l3_3_0" arrivalPos="95.25" arrivalSpeed="11.21" duration="196.00" routeLength="681.45" waitSteps="111" timeLoss="144.73" rerouteNo="0" devices="tripinfo_40" vType="DEFAULT_VEHTYPE" speedFactor="1.00" vaporized=""/>
    <tripinfo id="207" depart="207.00" departLane="l3_2_0" departPos="5.10" departSpeed="0.00" departDelay="0.00" arrival="236.00" arrivalLane="-l2_2_0" arrivalPos="95.25" arrivalSpeed="11.00" duration="29.00" routeLength="190.40" waitSteps="5" timeLoss="15.10" rerouteNo="0" devices="tripinfo_207" vType="DEFAULT_VEHTYPE" speedFactor="1.00" vaporized=""/>
    <tripinfo id="204" depart="204.00" departLane="l1_3_0" departPos="5.10" departSpeed="0.00" departDelay="0.00" arrival="237.00" arrivalLane="-l4_3_0" arrivalPos="95.25" arrivalSpeed="13.78" duration="33.00" routeLength="190.40" waitSteps="9" timeLoss="19.05" rerouteNo="0" devices="tripinfo_204" vType="DEFAULT_VEHTYPE" speedFactor="1.00" vaporized=""/>
    <tripinfo id="71" depart="71.00" departLane="l4_1_0" departPos="5.10" departSpeed="0.00" departDelay="0.00" arrival="241.00" arrivalLane="-l2_3_0" arrivalPos="95.25" arrivalSpeed="13.01" duration="170.00" routeLength="777.20" waitSteps="84" timeLoss="111.86" rerouteNo="0" devices="tripinfo_71" vType="DEFAULT_VEHTYPE" speedFactor="1.00" vaporized=""/>
    <tripinfo id="148" depart="148.00" departLane="l2_2_0" departPos="5.10" departSpeed="0.00" departDelay="0.00" arrival="243.00" arrivalLane="l3_3_0" arrivalPos="95.25" arrivalSpeed="13.81" duration="95.00" routeLength="485.85" waitSteps="37" timeLoss="60.00" rerouteNo="0" devices="tripinfo_148" vType="DEFAULT_VEHTYPE" speedFactor="1.00" vaporized=""/>
    <tripinfo id="120" depart="120.00" departLane="l1_2_0" departPos="5.10" departSpeed="0.00" departDelay="0.00" arrival="247.00" arrivalLane="-l1_3_0" arrivalPos="95.25" arrivalSpeed="13.55" duration="127.00" routeLength="586.10" waitSteps="53" timeLoss="82.95" rerouteNo="0" devices="tripinfo_120" vType="DEFAULT_VEHTYPE" speedFactor="1.00" vaporized=""/>
    <tripinfo id="218" depart="218.00" departLane="-l1_4_0" departPos="5.10" departSpeed="0.00" departDelay="0.00" arrival="249.00" arrivalLane="l3_3_0" arrivalPos="95.25" arrivalSpeed="12.87" duration="31.00" routeLength="185.50" waitSteps="5" timeLoss="17.44" rerouteNo="0" devices="tripinfo_218" vType="DEFAULT_VEHTYPE" speedFactor="1.00" vaporized=""/>
    <tripinfo id="90" depart="90.00" departLane="l1_1_0" departPos="5.10" departSpeed="0.00" departDelay="0.00" arrival="251.00" arrivalLane="l4_1_0" arrivalPos="95.25" arrivalSpeed="19.03" duration="161.00" routeLength="877.05" waitSteps="66" timeLoss="97.67" rerouteNo="0" devices="tripinfo_90" vType="DEFAULT_VEHTYPE" speedFactor="1.00" vaporized=""/>
    <tripinfo id="184" depart="184.00" departLane="l1_3_0" departPos="5.10" departSpeed="0.00" departDelay="0.00" arrival="251.00" arrivalLane="-l3_4_0" arrivalPos="95.25" arrivalSpeed="13.57" duration="67.00" routeLength="395.00" waitSteps="26" timeLoss="37.75" rerouteNo="0" devices="tripinfo_184" vType="DEFAULT_VEHTYPE" speedFactor="1.00" vaporized=""/>
    <tripinfo id="151" depart="151.00" departLane="l3_4_0" departPos="5.10" departSpeed="0.00" departDelay="0.00" arrival="253.00" arrivalLane="-l4_2_0" arrivalPos="95.25" arrivalSpeed="10.27" duration="102.00" routeLength="781.70" waitSteps="32" timeLoss="44.25" rerouteNo="0" devices="tripinfo_151" vType="DEFAULT_VEHTYPE" speedFactor="1.00" vaporized=""/>
    <tripinfo id="209" depart="209.00" departLane="l1_3_0" departPos="5.10" departSpeed="0.00" departDelay="0.00" arrival="254.00" arrivalLane="-l3_4_0" arrivalPos="95.25" arrivalSpeed="13.35" duration="45.00" routeLength="395.00" waitSteps="6" timeLoss="16.16" rerouteNo="0" devices="tripinfo_209" vType="DEFAULT_VEHTYPE" speedFactor="1.00" vaporized=""/>
    <tripinfo id="131" depart="131.00" departLane="-l3_1_0" departPos="5.10" departSpeed="0.00" departDelay="0.00" arrival="255.00" arrivalLane="l4_1_0" arrivalPos="95.25" arrivalSpeed="18.85" duration="124.00" routeLength="772.30" waitSteps="39" timeLoss="66.62" rerouteNo="0" devices="tripinfo_131" vType="DEFAULT_VEHTYPE" speedFactor="1.00" vaporized=""/>
    <tripinfo id="224" depart="224.00" departLane="l3_3_0" departPos="5.10" departSpeed="0.00" departDelay="0.00" arrival="255.00" arrivalLane="-l1_3_0" arrivalPos="95.25" arrivalSpeed="12.65" duration="31.00" routeLength="194.90" waitSteps="6" timeLoss="16.72" rerouteNo="0" devices="tripinfo_224" vType="DEFAULT_VEHTYPE" speedFactor="1.00" vaporized=""/>
    <tripinfo id="194" depart="194.00" departLane="l3_4_0" departPos="5.10" departSpeed="0.00" departDelay="0.00" arrival="259.00" arrivalLane="-l2_3_0" arrivalPos="95.25" arrivalSpeed="13.45" duration="65.00" routeLength="390.50" waitSteps="19" timeLoss="36.06" rerouteNo="0" devices="tripinfo_194" vType="DEFAULT_VEHTYPE" speedFactor="1.00" vaporized=""/>
    <tripinfo id="220" depart="220.00" departLane="l3_4_0" departPos="5.10" departSpeed="0.00" departDelay="0.00" arrival="262.00" arrivalLane="-l1_3_0" arrivalPos="95.25" arrivalSpeed="13.77" duration="42.00" routeLength="395.00" waitSteps="0" timeLoss="13.29" rerouteNo="0" devices="tripinfo_220" vType="DEFAULT_VEHTYPE" speedFactor="1.00" vaporized=""/>
    <tripinfo id="227" depart="228.00" departLane="-l1_4_0" departPos="5.10" departSpeed="0.00" departDelay="1.00" arrival="266.00" arrivalLane="l4_1_0" arrivalPos="95.25" arrivalSpeed="18.22" duration="38.00" routeLength="381.10" waitSteps="0" timeLoss="12.14" rerouteNo="0" devices="tripinfo_227" vType="DEFAULT_VEHTYPE" speedFactor="1.00" vaporized=""/>
    <tripinfo id="176" depart="176.00" departLane="-l1_4_0" departPos="5.10" departSpeed="0.00" departDelay="0.00" arrival="270.00" arrivalLane="-l3_2_0" arrivalPos="95.25" arrivalSpeed="9.98" duration="94.00" routeLength="681.45" waitSteps="30" timeLoss="43.13" rerouteNo="0" devices="tripinfo_176" vType="DEFAULT_VEHTYPE" speedFactor="1.00" vaporized=""/>
    <tripinfo id="183" depart="186.00" departLane="-l3_1_0" departPos="5.10" departSpeed="0.00" departDelay="3.00" arrival="276.00" arrivalLane="l2_4_0" arrivalPos="95.25" arrivalSpeed="7.72" duration="90.00" routeLength="381.10" waitSteps="41" timeLoss="59.09" rerouteNo="0" devices="tripinfo_183" vType="DEFAULT_VEHTYPE" speedFactor="1.00" vaporized=""/>
    <tripinfo id="190" depart="190.00" departLane="l2_1_0" departPos="5.10" departSpeed="0.00" departDelay="0.00" arrival="280.00" arrivalLane="-l4_3_0" arrivalPos="95.25" arrivalSpeed="13.14" duration="90.00" routeLength="395.00" waitSteps="45" timeLoss="61.03" rerouteNo="0" devices="tripinfo_190" vType="DEFAULT_VEHTYPE" speedFactor="1.00" vaporized=""/>
    <tripinfo id="261" depart="261.00" departLane="l2_3_0" departPos="5.10" departSpeed="0.00" departDelay="0.00" arrival="281.00" arrivalLane="-l1_3_0" arrivalPos="95.25" arrivalSpeed="13.73" duration="20.00" routeLength="190.40" waitSteps="0" timeLoss="5.94" rerouteNo="0" devices="tripinfo_261" vType="DEFAULT_VEHTYPE" speedFactor="1.00" vaporized=""/>
    <tripinfo id="136" depart="136.00" departLane="l1_1_0" departPos="5.10" departSpeed="0.00" departDelay="0.00" arrival="282.00" arrivalLane="-l1_4_0" arrivalPos="95.25" arrivalSpeed="13.19" duration="146.00" routeLength="586.10" waitSteps="79" timeLoss="102.03" rerouteNo="0" devices="tripinfo_136" vType="DEFAULT_VEHTYPE" speedFactor="1.00" vaporized=""/>
    <tripinfo id="206" depart="206.00" departLane="l4_1_0" departPos="5.10" departSpeed="0.00" departDelay="0.00" arrival="284.00" arrivalLane="l2_4_0" arrivalPos="95.25" arrivalSpeed="12.90" duration="78.00" routeLength="481.35" waitSteps="19" timeLoss="41.23" rerouteNo="0" devices="tripinfo_206" vType="DEFAULT_VEHTYPE" speedFactor="1.00" vaporized=""/>
    <tripinfo id="210" depart="210.00" departLane="-l2_3_0" departPos="5.10" departSpeed="0.00" departDelay="0.00" arrival="294.00" arrivalLane="-l1_4_0" arrivalPos="95.25" arrivalSpeed="12.82" duration="84.00" routeLength="676.95" waitSteps="9" timeLoss="33.03" rerouteNo="0" devices="tripinfo_210" vType="DEFAULT_VEHTYPE" speedFactor="1.00" vaporized=""/>
    <tripinfo id="217" depart="217.00" departLane="-l2_3_0" departPos="5.10" departSpeed="0.00" departDelay="0.00" arrival="296.00" arrivalLane="-l1_4_0" arrivalPos="95.25" arrivalSpeed="13.82" duration="79.00" routeLength="676.95" waitSteps="9" timeLoss="27.75" rerouteNo="0" devices="tripinfo_217" vType="DEFAULT_VEHTYPE" speedFactor="1.00" vaporized=""/>
    <tripinfo id="211" depart="211.00" departLane="l4_3_0" departPos="5.10" departSpeed="0.00" departDelay="0.00" arrival="297.00" arrivalLane="-l1_4_0" arrivalPos="95.25" arrivalSpeed="12.71" duration="86.00" routeLength="781.70" waitSteps="10" timeLoss="28.24" rerouteNo="0" devices="tripinfo_211" vType="DEFAULT_VEHTYPE" speedFactor="1.00" vaporized=""/>
    <tripinfo id="240" depart="254.00" departLane="l1_2_0" departPos="5.10" departSpeed="0.00" departDelay="14.00" arrival="301.00" arrivalLane="-l1_4_0" arrivalPos="95.25" arrivalSpeed="13.42" duration="47.00" routeLength="386.00" waitSteps="4" timeLoss="16.99" rerouteNo="0" devices="tripinfo_240" vType="DEFAULT_VEHTYPE" speedFactor="1.00" vaporized=""/>
    <tripinfo id="285" depart="285.00" departLane="l2_3_0" departPos="5.10" departSpeed="0.00" departDelay="0.00" arrival="303.00" arrivalLane="-l4_3_0" arrivalPos="95.25" arrivalSpeed="13.69" duration="18.00" routeLength="194.90" waitSteps="0" timeLoss="3.12" rerouteNo="0" devices="tripinfo_285" vType="DEFAULT_VEHTYPE" speedFactor="1.00" vaporized=""/>