<?xml version="1.0" encoding="UTF-8"?>

<!-- generated on Wed 28 Feb 2018 02:33:53 PM -03 by SUMO gui Version v0_32_0+0424-45083a6
<configuration xmlns:xsi="http://www.w3.org/2001/XMLSchema-instance" xsi:noNamespaceSchemaLocation="http://sumo.dlr.de/xsd/sumoConfiguration.xsd">

    <input>
        <net-file value="data/schutter.net.xml"/>
        <route-files value="data/routes.rou.xml"/>
    </input>

    <output>
        <tripinfo-output value="tripinfo.xml"/>
    </output>

    <time>
        <begin value="0"/>
        <end value="1500"/>
        <step-length value="1"/>
    </time>

    <processing>
        <time-to-teleport value="-1"/>
    </processing>

    <traci_server>
        <remote-port value="55617"/>
    </traci_server>

    <gui_only>
        <tracker-interval value="1"/>
    </gui_only>

</configuration>
-->

<tripinfos xmlns:xsi="http://www.w3.org/2001/XMLSchema-instance" xsi:noNamespaceSchemaLocation="http://sumo.dlr.de/xsd/tripinfo_file.xsd">
    <tripinfo id="0" depart="0.00" departLane="l1_3_0" departPos="5.10" departSpeed="0.00" departDelay="0.00" arrival="25.00" arrivalLane="l1_4_0" arrivalPos="95.25" arrivalSpeed="13.36" duration="25.00" routeLength="290.25" waitingTime="0.00" waitingCount="0" stopTime="0.00" timeLoss="4.05" rerouteNo="0" devices="tripinfo_0" vType="DEFAULT_VEHTYPE" speedFactor="1.00" vaporized=""/>
    <tripinfo id="17" depart="17.00" departLane="l1_1_0" departPos="5.10" departSpeed="0.00" departDelay="0.00" arrival="43.00" arrivalLane="l1_2_0" arrivalPos="95.25" arrivalSpeed="12.60" duration="26.00" routeLength="290.25" waitingTime="0.00" waitingCount="0" stopTime="0.00" timeLoss="5.09" rerouteNo="0" devices="tripinfo_17" vType="DEFAULT_VEHTYPE" speedFactor="1.00" vaporized=""/>
    <tripinfo id="18" depart="18.00" departLane="l1_2_0" departPos="5.10" departSpeed="0.00" departDelay="0.00" arrival="45.00" arrivalLane="l2_4_0" arrivalPos="95.25" arrivalSpeed="13.23" duration="27.00" routeLength="285.75" waitingTime="0.00" waitingCount="0" stopTime="0.00" timeLoss="4.50" rerouteNo="0" devices="tripinfo_18" vType="DEFAULT_VEHTYPE" speedFactor="1.00" vaporized=""/>
    <tripinfo id="4" depart="4.00" departLane="l4_1_0" departPos="5.10" departSpeed="0.00" departDelay="0.00" arrival="55.00" arrivalLane="-l3_1_0" arrivalPos="95.25" arrivalSpeed="10.73" duration="51.00" routeLength="190.40" waitingTime="27.00" waitingCount="1" stopTime="0.00" timeLoss="36.53" rerouteNo="0" devices="tripinfo_4" vType="DEFAULT_VEHTYPE" speedFactor="1.00" vaporized=""/>
    <tripinfo id="14" depart="14.00" departLane="l2_1_0" departPos="5.10" departSpeed="0.00" departDelay="0.00" arrival="72.00" arrivalLane="l2_3_0" arrivalPos="95.25" arrivalSpeed="4.74" duration="58.00" routeLength="290.25" waitingTime="20.00" waitingCount="2" stopTime="0.00" timeLoss="37.22" rerouteNo="0" devices="tripinfo_14" vType="DEFAULT_VEHTYPE" speedFactor="1.00" vaporized=""/>
    <tripinfo id="25" depart="25.00" departLane="l2_1_0" departPos="5.10" departSpeed="0.00" departDelay="0.00" arrival="74.00" arrivalLane="l2_3_0" arrivalPos="95.25" arrivalSpeed="7.67" duration="49.00" routeLength="290.25" waitingTime="10.00" waitingCount="2" stopTime="0.00" timeLoss="28.09" rerouteNo="0" devices="tripinfo_25" vType="DEFAULT_VEHTYPE" speedFactor="1.00" vaporized=""/>
    <tripinfo id="29" depart="29.00" departLane="l1_1_0" departPos="5.10" departSpeed="0.00" departDelay="0.00" arrival="79.00" arrivalLane="-l1_3_0" arrivalPos="95.25" arrivalSpeed="12.69" duration="50.00" routeLength="386.00" waitingTime="11.00" waitingCount="1" stopTime="0.00" timeLoss="21.54" rerouteNo="0" devices="tripinfo_29" vType="DEFAULT_VEHTYPE" speedFactor="1.00" vaporized=""/>
    <tripinfo id="35" depart="35.00" departLane="l4_3_0" departPos="5.10" departSpeed="0.00" departDelay="0.00" arrival="79.00" arrivalLane="-l3_3_0" arrivalPos="95.25" arrivalSpeed="13.81" duration="44.00" routeLength="190.40" waitingTime="21.00" waitingCount="1" stopTime="0.00" timeLoss="30.18" rerouteNo="0" devices="tripinfo_35" vType="DEFAULT_VEHTYPE" speedFactor="1.00" vaporized=""/>
    <tripinfo id="57" depart="57.00" departLane="l2_2_0" departPos="5.10" departSpeed="0.00" departDelay="0.00" arrival="80.00" arrivalLane="l3_1_0" arrivalPos="95.25" arrivalSpeed="19.21" duration="23.00" routeLength="285.75" waitingTime="0.00" waitingCount="0" stopTime="0.00" timeLoss="5.58" rerouteNo="0" devices="tripinfo_57" vType="DEFAULT_VEHTYPE" speedFactor="1.00" vaporized=""/>
    <tripinfo id="6" depart="6.00" departLane="l3_4_0" departPos="5.10" departSpeed="0.00" departDelay="0.00" arrival="82.00" arrivalLane="l1_2_0" arrivalPos="95.25" arrivalSpeed="6.91" duration="76.00" routeLength="681.45" waitingTime="9.00" waitingCount="1" stopTime="0.00" timeLoss="27.16" rerouteNo="0" devices="tripinfo_6" vType="DEFAULT_VEHTYPE" speedFactor="1.00" vaporized=""/>
    <tripinfo id="42" depart="42.00" departLane="l3_2_0" departPos="5.10" departSpeed="0.00" departDelay="0.00" arrival="86.00" arrivalLane="-l1_2_0" arrivalPos="95.25" arrivalSpeed="13.04" duration="44.00" routeLength="194.90" waitingTime="20.00" waitingCount="1" stopTime="0.00" timeLoss="31.83" rerouteNo="0" devices="tripinfo_42" vType="DEFAULT_VEHTYPE" speedFactor="1.00" vaporized=""/>
    <tripinfo id="34" depart="34.00" departLane="l1_3_0" departPos="5.10" departSpeed="0.00" departDelay="0.00" arrival="89.00" arrivalLane="-l4_4_0" arrivalPos="95.25" arrivalSpeed="12.84" duration="55.00" routeLength="390.50" waitingTime="13.00" waitingCount="1" stopTime="0.00" timeLoss="26.09" rerouteNo="0" devices="tripinfo_34" vType="DEFAULT_VEHTYPE" speedFactor="1.00" vaporized=""/>
    <tripinfo id="80" depart="80.00" departLane="l2_4_0" departPos="5.10" departSpeed="0.00" departDelay="0.00" arrival="90.00" arrivalLane="l2_4_0" arrivalPos="95.25" arrivalSpeed="13.34" duration="10.00" routeLength="90.15" waitingTime="0.00" waitingCount="0" stopTime="0.00" timeLoss="3.18" rerouteNo="0" devices="tripinfo_80" vType="DEFAULT_VEHTYPE" speedFactor="1.00" vaporized=""/>
    <tripinfo id="75" depart="75.00" departLane="l1_2_0" departPos="5.10" departSpeed="0.00" departDelay="0.00" arrival="95.00" arrivalLane="-l3_2_0" arrivalPos="95.25" arrivalSpeed="11.11" duration="20.00" routeLength="194.90" waitingTime="0.00" waitingCount="0" stopTime="0.00" timeLoss="4.01" rerouteNo="0" devices="tripinfo_75" vType="DEFAULT_VEHTYPE" speedFactor="1.00" vaporized=""/>
    <tripinfo id="54" depart="54.00" departLane="l1_1_0" departPos="5.10" departSpeed="0.00" departDelay="0.00" arrival="100.00" arrivalLane="-l4_1_0" arrivalPos="95.25" arrivalSpeed="10.96" duration="46.00" routeLength="190.40" waitingTime="20.00" waitingCount="1" stopTime="0.00" timeLoss="31.45" rerouteNo="0" devices="tripinfo_54" vType="DEFAULT_VEHTYPE" speedFactor="1.00" vaporized=""/>
    <tripinfo id="74" depart="74.00" departLane="-l4_2_0" departPos="5.10" departSpeed="0.00" departDelay="0.00" arrival="100.00" arrivalLane="-l4_4_0" arrivalPos="95.25" arrivalSpeed="13.12" duration="26.00" routeLength="290.25" waitingTime="0.00" waitingCount="0" stopTime="0.00" timeLoss="3.31" rerouteNo="0" devices="tripinfo_74" vType="DEFAULT_VEHTYPE" speedFactor="1.00" vaporized=""/>
    <tripinfo id="43" depart="43.00" departLane="l1_2_0" departPos="5.10" departSpeed="0.00" departDelay="0.00" arrival="117.00" arrivalLane="-l2_3_0" arrivalPos="95.25" arrivalSpeed="13.19" duration="74.00" routeLength="581.60" waitingTime="20.00" waitingCount="1" stopTime="0.00" timeLoss="30.23" rerouteNo="0" devices="tripinfo_43" vType="DEFAULT_VEHTYPE" speedFactor="1.00" vaporized=""/>
    <tripinfo id="8" depart="8.00" departLane="-l2_3_0" departPos="5.10" departSpeed="0.00" departDelay="0.00" arrival="120.00" arrivalLane="-l1_3_0" arrivalPos="95.25" arrivalSpeed="13.08" duration="112.00" routeLength="877.05" waitingTime="27.00" waitingCount="2" stopTime="0.00" timeLoss="46.69" rerouteNo="0" devices="tripinfo_8" vType="DEFAULT_VEHTYPE" speedFactor="1.00" vaporized=""/>
    <tripinfo id="36" depart="36.00" departLane="l1_1_0" departPos="5.10" departSpeed="0.00" departDelay="0.00" arrival="125.00" arrivalLane="-l4_3_0" arrivalPos="95.25" arrivalSpeed="12.60" duration="89.00" routeLength="390.50" waitingTime="44.00" waitingCount="2" stopTime="0.00" timeLoss="60.78" rerouteNo="0" devices="tripinfo_36" vType="DEFAULT_VEHTYPE" speedFactor="1.00" vaporized=""/>
    <tripinfo id="55" depart="55.00" departLane="l4_4_0" departPos="5.10" departSpeed="0.00" departDelay="0.00" arrival="126.00" arrivalLane="-l2_2_0" arrivalPos="95.25" arrivalSpeed="9.87" duration="71.00" routeLength="395.00" waitingTime="32.00" waitingCount="1" stopTime="0.00" timeLoss="42.36" rerouteNo="0" devices="tripinfo_55" vType="DEFAULT_VEHTYPE" speedFactor="1.00" vaporized=""/>
    <tripinfo id="71" depart="71.00" departLane="-l2_4_0" departPos="5.10" departSpeed="0.00" departDelay="0.00" arrival="127.00" arrivalLane="-l3_2_0" arrivalPos="95.25" arrivalSpeed="11.03" duration="56.00" routeLength="285.75" waitingTime="25.00" waitingCount="1" stopTime="0.00" timeLoss="35.65" rerouteNo="0" devices="tripinfo_71" vType="DEFAULT_VEHTYPE" speedFactor="1.00" vaporized=""/>
    <tripinfo id="79" depart="79.00" departLane="-l3_1_0" departPos="5.10" departSpeed="0.00" departDelay="0.00" arrival="130.00" arrivalLane="-l1_4_0" arrivalPos="95.25" arrivalSpeed="13.55" duration="51.00" routeLength="481.35" waitingTime="1.00" waitingCount="1" stopTime="0.00" timeLoss="13.01" rerouteNo="0" devices="tripinfo_79" vType="DEFAULT_VEHTYPE" speedFactor="1.00" vaporized=""/>
    <tripinfo id="87" depart="87.00" departLane="l3_3_0" departPos="5.10" departSpeed="0.00" departDelay="0.00" arrival="135.00" arrivalLane="l4_1_0" arrivalPos="95.25" arrivalSpeed="8.82" duration="48.00" routeLength="285.75" waitingTime="16.00" waitingCount="1" stopTime="0.00" timeLoss="29.13" rerouteNo="0" devices="tripinfo_87" vType="DEFAULT_VEHTYPE" speedFactor="1.00" vaporized=""/>
    <tripinfo id="82" depart="82.00" departLane="-l1_4_0" departPos="5.10" departSpeed="0.00" departDelay="0.00" arrival="137.00" arrivalLane="l4_1_0" arrivalPos="95.25" arrivalSpeed="10.06" duration="55.00" routeLength="381.10" waitingTime="16.00" waitingCount="1" stopTime="0.00" timeLoss="29.27" rerouteNo="0" devices="tripinfo_82" vType="DEFAULT_VEHTYPE" speedFactor="1.00" vaporized=""/>
    <tripinfo id="96" depart="101.00" departLane="-l2_3_0" departPos="5.10" departSpeed="0.00" departDelay="5.00" arrival="141.00" arrivalLane="l4_1_0" arrivalPos="95.25" arrivalSpeed="12.29" duration="40.00" routeLength="185.50" waitingTime="13.00" waitingCount="1" stopTime="0.00" timeLoss="28.19" rerouteNo="0" devices="tripinfo_96" vType="DEFAULT_VEHTYPE" speedFactor="1.00" vaporized=""/>
    <tripinfo id="76" depart="76.00" departLane="l4_1_0" departPos="5.10" departSpeed="0.00" departDelay="0.00" arrival="141.00" arrivalLane="-l2_1_0" arrivalPos="95.25" arrivalSpeed="9.91" duration="65.00" routeLength="194.90" waitingTime="40.00" waitingCount="1" stopTime="0.00" timeLoss="50.43" rerouteNo="0" devices="tripinfo_76" vType="DEFAULT_VEHTYPE" speedFactor="1.00" vaporized=""/>
    <tripinfo id="134" depart="134.00" departLane="l1_4_0" departPos="5.10" departSpeed="0.00" departDelay="0.00" arrival="145.00" arrivalLane="l1_4_0" arrivalPos="95.25" arrivalSpeed="12.70" duration="11.00" routeLength="90.15" waitingTime="0.00" waitingCount="0" stopTime="0.00" timeLoss="3.65" rerouteNo="0" devices="tripinfo_134" vType="DEFAULT_VEHTYPE" speedFactor="1.00" vaporized=""/>
    <tripinfo id="101" depart="101.00" departLane="l3_4_0" departPos="5.10" departSpeed="0.00" departDelay="0.00" arrival="150.00" arrivalLane="-l1_3_0" arrivalPos="95.25" arrivalSpeed="13.70" duration="49.00" routeLength="395.00" waitingTime="10.00" waitingCount="1" stopTime="0.00" timeLoss="20.35" rerouteNo="0" devices="tripinfo_101" vType="DEFAULT_VEHTYPE" speedFactor="1.00" vaporized=""/>
    <tripinfo id="121" depart="121.00" departLane="l1_3_0" departPos="5.10" departSpeed="0.00" departDelay="0.00" arrival="155.00" arrivalLane="l1_4_0" arrivalPos="95.25" arrivalSpeed="13.72" duration="34.00" routeLength="290.25" waitingTime="3.00" waitingCount="1" stopTime="0.00" timeLoss="13.07" rerouteNo="0" devices="tripinfo_121" vType="DEFAULT_VEHTYPE" speedFactor="1.00" vaporized=""/>
    <tripinfo id="69" depart="69.00" departLane="-l3_1_0" departPos="5.10" departSpeed="0.00" departDelay="0.00" arrival="159.00" arrivalLane="l4_1_0" arrivalPos="95.25" arrivalSpeed="18.20" duration="90.00" routeLength="772.30" waitingTime="17.00" waitingCount="2" stopTime="0.00" timeLoss="33.14" rerouteNo="0" devices="tripinfo_69" vType="DEFAULT_VEHTYPE" speedFactor="1.00" vaporized=""/>
    <tripinfo id="72" depart="72.00" departLane="-l3_1_0" departPos="5.10" departSpeed="0.00" departDelay="0.00" arrival="161.00" arrivalLane="l4_1_0" arrivalPos="95.25" arrivalSpeed="18.52" duration="89.00" routeLength="772.30" waitingTime="11.00" waitingCount="2" stopTime="0.00" timeLoss="31.79" rerouteNo="0" devices="tripinfo_72" vType="DEFAULT_VEHTYPE" speedFactor="1.00" vaporized=""/>
    <tripinfo id="118" depart="118.00" departLane="l3_4_0" departPos="5.10" departSpeed="0.00" departDelay="0.00" arrival="164.00" arrivalLane="l4_1_0" arrivalPos="95.25" arrivalSpeed="18.74" duration="46.00" routeLength="485.85" waitingTime="0.00" waitingCount="0" stopTime="0.00" timeLoss="13.08" rerouteNo="0" devices="tripinfo_118" vType="DEFAULT_VEHTYPE" speedFactor="1.00" vaporized=""/>
    <tripinfo id="68" depart="68.00" departLane="-l1_4_0" departPos="5.10" departSpeed="0.00" departDelay="0.00" arrival="170.00" arrivalLane="-l3_2_0" arrivalPos="95.25" arrivalSpeed="10.84" duration="102.00" routeLength="681.45" waitingTime="25.00" waitingCount="3" stopTime="0.00" timeLoss="51.05" rerouteNo="0" devices="tripinfo_68" vType="DEFAULT_VEHTYPE" speedFactor="1.00" vaporized=""/>
    <tripinfo id="98" depart="98.00" departLane="-l3_1_0" departPos="5.10" departSpeed="0.00" departDelay="0.00" arrival="170.00" arrivalLane="l2_4_0" arrivalPos="95.25" arrivalSpeed="13.74" duration="72.00" routeLength="381.10" waitingTime="34.00" waitingCount="1" stopTime="0.00" timeLoss="41.39" rerouteNo="0" devices="tripinfo_98" vType="DEFAULT_VEHTYPE" speedFactor="1.00" vaporized=""/>
    <tripinfo id="106" depart="106.00" departLane="l2_1_0" departPos="5.10" departSpeed="0.00" departDelay="0.00" arrival="172.00" arrivalLane="-l4_3_0" arrivalPos="95.25" arrivalSpeed="12.67" duration="66.00" routeLength="395.00" waitingTime="18.00" waitingCount="2" stopTime="0.00" timeLoss="37.12" rerouteNo="0" devices="tripinfo_106" vType="DEFAULT_VEHTYPE" speedFactor="1.00" vaporized=""/>
    <tripinfo id="104" depart="104.00" departLane="-l3_1_0" departPos="5.10" departSpeed="0.00" departDelay="0.00" arrival="173.00" arrivalLane="l2_4_0" arrivalPos="95.25" arrivalSpeed="13.36" duration="69.00" routeLength="381.10" waitingTime="29.00" waitingCount="1" stopTime="0.00" timeLoss="37.53" rerouteNo="0" devices="tripinfo_104" vType="DEFAULT_VEHTYPE" speedFactor="1.00" vaporized=""/>
    <tripinfo id="62" depart="62.00" departLane="l1_1_0" departPos="5.10" departSpeed="0.00" departDelay="0.00" arrival="173.00" arrivalLane="-l2_1_0" arrivalPos="95.25" arrivalSpeed="10.18" duration="111.00" routeLength="981.80" waitingTime="14.00" waitingCount="2" stopTime="0.00" timeLoss="38.35" rerouteNo="0" devices="tripinfo_62" vType="DEFAULT_VEHTYPE" speedFactor="1.00" vaporized=""/>
    <tripinfo id="113" depart="116.00" departLane="l1_2_0" departPos="5.10" departSpeed="0.00" departDelay="3.00" arrival="175.00" arrivalLane="l2_4_0" arrivalPos="95.25" arrivalSpeed="12.60" duration="59.00" routeLength="285.75" waitingTime="25.00" waitingCount="1" stopTime="0.00" timeLoss="36.32" rerouteNo="0" devices="tripinfo_113" vType="DEFAULT_VEHTYPE" speedFactor="1.00" vaporized=""/>
    <tripinfo id="119" depart="119.00" departLane="-l2_3_0" departPos="5.10" departSpeed="0.00" departDelay="0.00" arrival="178.00" arrivalLane="-l4_2_0" arrivalPos="95.25" arrivalSpeed="10.49" duration="59.00" routeLength="481.35" waitingTime="1.00" waitingCount="1" stopTime="0.00" timeLoss="21.84" rerouteNo="0" devices="tripinfo_119" vType="DEFAULT_VEHTYPE" speedFactor="1.00" vaporized=""/>
    <tripinfo id="148" depart="149.00" departLane="l1_2_0" departPos="5.10" departSpeed="0.00" departDelay="1.00" arrival="181.00" arrivalLane="l2_4_0" arrivalPos="95.25" arrivalSpeed="11.70" duration="32.00" routeLength="285.75" waitingTime="0.00" waitingCount="0" stopTime="0.00" timeLoss="9.51" rerouteNo="0" devices="tripinfo_148" vType="DEFAULT_VEHTYPE" speedFactor="1.00" vaporized=""/>
    <tripinfo id="129" depart="129.00" departLane="l2_2_0" departPos="5.10" departSpeed="0.00" departDelay="0.00" arrival="183.00" arrivalLane="-l2_1_0" arrivalPos="95.25" arrivalSpeed="10.34" duration="54.00" routeLength="386.00" waitingTime="15.00" waitingCount="1" stopTime="0.00" timeLoss="28.29" rerouteNo="0" devices="tripinfo_129" vType="DEFAULT_VEHTYPE" speedFactor="1.00" vaporized=""/>
    <tripinfo id="114" depart="114.00" departLane="-l1_4_0" departPos="5.10" departSpeed="0.00" departDelay="0.00" arrival="185.00" arrivalLane="-l3_2_0" arrivalPos="95.25" arrivalSpeed="11.04" duration="71.00" routeLength="681.45" waitingTime="8.00" waitingCount="1" stopTime="0.00" timeLoss="19.62" rerouteNo="0" devices="tripinfo_114" vType="DEFAULT_VEHTYPE" speedFactor="1.00" vaporized=""/>
    <tripinfo id="133" depart="133.00" departLane="l2_2_0" departPos="5.10" departSpeed="0.00" departDelay="0.00" arrival="186.00" arrivalLane="-l2_1_0" arrivalPos="95.25" arrivalSpeed="10.51" duration="53.00" routeLength="386.00" waitingTime="15.00" waitingCount="1" stopTime="0.00" timeLoss="26.38" rerouteNo="0" devices="tripinfo_133" vType="DEFAULT_VEHTYPE" speedFactor="1.00" vaporized=""/>
    <tripinfo id="156" depart="156.00" departLane="l1_3_0" departPos="5.10" departSpeed="0.00" departDelay="0.00" arrival="194.00" arrivalLane="-l3_3_0" arrivalPos="95.25" arrivalSpeed="12.85" duration="38.00" routeLength="194.90" waitingTime="14.00" waitingCount="1" stopTime="0.00" timeLoss="23.82" rerouteNo="0" devices="tripinfo_156" vType="DEFAULT_VEHTYPE" speedFactor="1.00" vaporized=""/>
    <tripinfo id="100" depart="100.00" departLane="-l1_4_0" departPos="5.10" departSpeed="0.00" departDelay="0.00" arrival="201.00" arrivalLane="l2_4_0" arrivalPos="95.25" arrivalSpeed="7.56" duration="101.00" routeLength="772.30" waitingTime="24.00" waitingCount="2" stopTime="0.00" timeLoss="43.68" rerouteNo="0" devices="tripinfo_100" vType="DEFAULT_VEHTYPE" speedFactor="1.00" vaporized=""/>
    <tripinfo id="108" depart="108.00" departLane="l4_1_0" departPos="5.10" departSpeed="0.00" departDelay="0.00" arrival="202.00" arrivalLane="-l1_3_0" arrivalPos="95.25" arrivalSpeed="13.23" duration="94.00" routeLength="781.70" waitingTime="14.00" waitingCount="1" stopTime="0.00" timeLoss="35.64" rerouteNo="0" devices="tripinfo_108" vType="DEFAULT_VEHTYPE" speedFactor="1.00" vaporized=""/>
    <tripinfo id="197" depart="197.00" departLane="-l4_2_0" departPos="5.10" departSpeed="0.00" departDelay="0.00" arrival="208.00" arrivalLane="-l4_2_0" arrivalPos="95.25" arrivalSpeed="10.63" duration="11.00" routeLength="90.15" waitingTime="0.00" waitingCount="0" stopTime="0.00" timeLoss="2.78" rerouteNo="0" devices="tripinfo_197" vType="DEFAULT_VEHTYPE" speedFactor="1.00" vaporized=""/>
    <tripinfo id="142" depart="142.00" departLane="l3_3_0" departPos="5.10" departSpeed="0.00" departDelay="0.00" arrival="213.00" arrivalLane="-l1_4_0" arrivalPos="95.25" arrivalSpeed="12.93" duration="71.00" routeLength="777.20" waitingTime="0.00" waitingCount="0" stopTime="0.00" timeLoss="12.79" rerouteNo="0" devices="tripinfo_142" vType="DEFAULT_VEHTYPE" speedFactor="1.00" vaporized=""/>
    <tripinfo id="189" depart="189.00" departLane="l1_1_0" departPos="5.10" departSpeed="0.00" departDelay="0.00" arrival="216.00" arrivalLane="l2_3_0" arrivalPos="95.25" arrivalSpeed="12.93" duration="27.00" routeLength="285.75" waitingTime="0.00" waitingCount="0" stopTime="0.00" timeLoss="6.13" rerouteNo="0" devices="tripinfo_189" vType="DEFAULT_VEHTYPE" speedFactor="1.00" vaporized=""/>
    <tripinfo id="202" depart="202.00" departLane="l4_1_0" departPos="5.10" departSpeed="0.00" departDelay="0.00" arrival="228.00" arrivalLane="-l2_1_0" arrivalPos="95.25" arrivalSpeed="9.91" duration="26.00" routeLength="194.90" waitingTime="2.00" waitingCount="1" stopTime="0.00" timeLoss="11.95" rerouteNo="0" devices="tripinfo_202" vType="DEFAULT_VEHTYPE" speedFactor="1.00" vaporized=""/>
    <tripinfo id="110" depart="113.00" departLane="l4_1_0" departPos="5.10" departSpeed="0.00" departDelay="3.00" arrival="240.00" arrivalLane="-l2_3_0" arrivalPos="95.25" arrivalSpeed="13.38" duration="127.00" routeLength="777.20" waitingTime="35.00" waitingCount="3" stopTime="0.00" timeLoss="68.85" rerouteNo="0" devices="tripinfo_110" vType="DEFAULT_VEHTYPE" speedFactor="1.00" vaporized=""/>
    <tripinfo id="188" depart="188.00" departLane="-l3_1_0" departPos="5.10" departSpeed="0.00" departDelay="0.00" arrival="242.00" arrivalLane="-l3_2_0" arrivalPos="95.25" arrivalSpeed="10.85" duration="54.00" routeLength="290.25" waitingTime="21.00" waitingCount="1" stopTime="0.00" timeLoss="29.64" rerouteNo="0" devices="tripinfo_188" vType="DEFAULT_VEHTYPE" speedFactor="1.00" vaporized=""/>
    <tripinfo id="144" depart="146.00" departLane="-l3_1_0" departPos="5.10" departSpeed="0.00" departDelay="2.00" arrival="248.00" arrivalLane="l4_1_0" arrivalPos="95.25" arrivalSpeed="18.18" duration="102.00" routeLength="772.30" waitingTime="20.00" waitingCount="2" stopTime="0.00" timeLoss="44.64" rerouteNo="0" devices="tripinfo_144" vType="DEFAULT_VEHTYPE" speedFactor="1.00" vaporized=""/>
    <tripinfo id="226" depart="226.00" departLane="l2_1_0" departPos="5.10" departSpeed="0.00" departDelay="0.00" arrival="253.00" arrivalLane="l2_3_0" arrivalPos="95.25" arrivalSpeed="12.75" duration="27.00" routeLength="290.25" waitingTime="0.00" waitingCount="0" stopTime="0.00" timeLoss="5.31" rerouteNo="0" devices="tripinfo_226" vType="DEFAULT_VEHTYPE" speedFactor="1.00" vaporized=""/>
    <tripinfo id="199" depart="199.00" departLane="l2_2_0" departPos="5.10" departSpeed="0.00" departDelay="0.00" arrival="256.00" arrivalLane="l4_1_0" arrivalPos="95.25" arrivalSpeed="16.60" duration="57.00" routeLength="681.45" waitingTime="0.00" waitingCount="0" stopTime="0.00" timeLoss="9.43" rerouteNo="0" devices="tripinfo_199" vType="DEFAULT_VEHTYPE" speedFactor="1.00" vaporized=""/>
    <tripinfo id="210" depart="210.00" departLane="l3_1_0" departPos="5.10" departSpeed="0.00" departDelay="0.00" arrival="261.00" arrivalLane="l3_1_0" arrivalPos="95.25" arrivalSpeed="6.29" duration="51.00" routeLength="90.15" waitingTime="37.00" waitingCount="1" stopTime="0.00" timeLoss="46.22" rerouteNo="0" devices="tripinfo_210" vType="DEFAULT_VEHTYPE" speedFactor="1.00" vaporized=""/>
    <tripinfo id="195" depart="195.00" departLane="l3_4_0" departPos="5.10" departSpeed="0.00" departDelay="0.00" arrival="262.00" arrivalLane="-l2_1_0" arrivalPos="95.25" arrivalSpeed="10.54" duration="67.00" routeLength="590.60" waitingTime="7.00" waitingCount="1" stopTime="0.00" timeLoss="24.68" rerouteNo="0" devices="tripinfo_195" vType="DEFAULT_VEHTYPE" speedFactor="1.00" vaporized=""/>
    <tripinfo id="173" depart="173.00" departLane="l4_1_0" departPos="5.10" departSpeed="0.00" departDelay="0.00" arrival="263.00" arrivalLane="-l4_4_0" arrivalPos="95.25" arrivalSpeed="13.59" duration="90.00" routeLength="586.10" waitingTime="29.00" waitingCount="1" stopTime="0.00" timeLoss="46.02" rerouteNo="0" devices="tripinfo_173" vType="DEFAULT_VEHTYPE" speedFactor="1.00" vaporized=""/>
    <tripinfo id="191" depart="191.00" departLane="l2_2_0" departPos="5.10" departSpeed="0.00" departDelay="0.00" arrival="270.00" arrivalLane="-l1_1_0" arrivalPos="95.25" arrivalSpeed="10.55" duration="79.00" routeLength="390.50" waitingTime="39.00" waitingCount="1" stopTime="0.00" timeLoss="52.24" rerouteNo="0" devices="tripinfo_191" vType="DEFAULT_VEHTYPE" speedFactor="1.00" vaporized=""/>
    <tripinfo id="229" depart="229.00" departLane="l1_3_0" departPos="5.10" departSpeed="0.00" departDelay="0.00" arrival="270.00" arrivalLane="-l3_4_0" arrivalPos="95.25" arrivalSpeed="12.95" duration="41.00" routeLength="395.00" waitingTime="2.00" waitingCount="1" stopTime="0.00" timeLoss="12.28" rerouteNo="0" devices="tripinfo_229" vType="DEFAULT_VEHTYPE" speedFactor="1.00" vaporized=""/>
    <tripinfo id="237" depart="237.00" departLane="l3_4_0" departPos="5.10" departSpeed="0.00" departDelay="0.00" arrival="271.00" arrivalLane="-l2_4_0" arrivalPos="95.25" arrivalSpeed="13.62" duration="34.00" routeLength="190.40" waitingTime="11.00" waitingCount="1" stopTime="0.00" timeLoss="19.66" rerouteNo="0" devices="tripinfo_237" vType="DEFAULT_VEHTYPE" speedFactor="1.00" vaporized=""/>
    <tripinfo id="200" depart="202.00" departLane="l2_2_0" departPos="5.10" departSpeed="0.00" departDelay="2.00" arrival="273.00" arrivalLane="-l2_1_0" arrivalPos="95.25" arrivalSpeed="9.99" duration="71.00" routeLength="386.00" waitingTime="33.00" waitingCount="1" stopTime="0.00" timeLoss="45.00" rerouteNo="0" devices="tripinfo_200" vType="DEFAULT_VEHTYPE" speedFactor="1.00" vaporized=""/>
    <tripinfo id="241" depart="241.00" departLane="l3_1_0" departPos="5.10" departSpeed="0.00" departDelay="0.00" arrival="276.00" arrivalLane="-l1_1_0" arrivalPos="95.25" arrivalSpeed="9.84" duration="35.00" routeLength="194.90" waitingTime="10.00" waitingCount="1" stopTime="0.00" timeLoss="20.53" rerouteNo="0" devices="tripinfo_241" vType="DEFAULT_VEHTYPE" speedFactor="1.00" vaporized=""/>
    <tripinfo id="239" depart="239.00" departLane="l1_2_0" departPos="5.10" departSpeed="0.00" departDelay="0.00" arrival="277.00" arrivalLane="l2_4_0" arrivalPos="95.25" arrivalSpeed="6.40" duration="38.00" routeLength="285.75" waitingTime="6.00" waitingCount="1" stopTime="0.00" timeLoss="15.20" rerouteNo="0" devices="tripinfo_239" vType="DEFAULT_VEHTYPE" speedFactor="1.00" vaporized=""/>
    <tripinfo id="243" depart="243.00" departLane="-l1_2_0" departPos="5.10" departSpeed="0.00" departDelay="0.00" arrival="278.00" arrivalLane="-l2_1_0" arrivalPos="95.25" arrivalSpeed="10.21" duration="35.00" routeLength="285.75" waitingTime="1.00" waitingCount="1" stopTime="0.00" timeLoss="13.80" rerouteNo="0" devices="tripinfo_243" vType="DEFAULT_VEHTYPE" speedFactor="1.00" vaporized=""/>
    <tripinfo id="273" depart="273.00" departLane="l3_1_0" departPos="5.10" departSpeed="0.00" departDelay="0.00" arrival="283.00" arrivalLane="l3_1_0" arrivalPos="95.25" arrivalSpeed="18.31" duration="10.00" routeLength="90.15" waitingTime="0.00" waitingCount="0" stopTime="0.00" timeLoss="4.65" rerouteNo="0" devices="tripinfo_273" vType="DEFAULT_VEHTYPE" speedFactor="1.00" vaporized=""/>
    <tripinfo id="252" depart="252.00" departLane="l3_4_0" departPos="5.10" departSpeed="0.00" departDelay="0.00" arrival="288.00" arrivalLane="-l3_2_0" arrivalPos="95.25" arrivalSpeed="10.04" duration="36.00" routeLength="386.00" waitingTime="0.00" waitingCount="0" stopTime="0.00" timeLoss="7.58" rerouteNo="0" devices="tripinfo_252" vType="DEFAULT_VEHTYPE" speedFactor="1.00" vaporized=""/>
    <tripinfo id="205" depart="205.00" departLane="-l2_3_0" departPos="5.10" departSpeed="0.00" departDelay="0.00" arrival="298.00" arrivalLane="-l1_3_0" arrivalPos="95.25" arrivalSpeed="13.74" duration="93.00" routeLength="877.05" waitingTime="14.00" waitingCount="1" stopTime="0.00" timeLoss="28.21" rerouteNo="0" devices="tripinfo_205" vType="DEFAULT_VEHTYPE" speedFactor="1.00" vaporized=""/>
    <tripinfo id="266" depart="266.00" departLane="l4_4_0" departPos="5.10" departSpeed="0.00" departDelay="0.00" arrival="300.00" arrivalLane="-l3_2_0" arrivalPos="95.25" arrivalSpeed="10.83" duration="34.00" routeLength="390.50" waitingTime="0.00" waitingCount="0" stopTime="0.00" timeLoss="5.13" rerouteNo="0" devices="tripinfo_266" vType="DEFAULT_VEHTYPE" speedFactor="1.00" vaporized=""/>
    <tripinfo id="285" depart="285.00" departLane="-l2_4_0" departPos="5.10" departSpeed="0.00" departDelay="0.00" arrival="301.00" arrivalLane="l4_2_0" arrivalPos="95.25" arrivalSpeed="18.77" duration="16.00" routeLength="185.50" waitingTime="0.00" waitingCount="0" stopTime="0.00" timeLoss="4.13" rerouteNo="0" devices="tripinfo_285" vType="DEFAULT_VEHTYPE" speedFactor="1.00" vaporized=""/>
    <tripinfo id="265" depart="265.00" departLane="l2_4_0" departPos="5.10" departSpeed="0.00" departDelay="0.00" arrival="302.00" arrivalLane="-l1_3_0" arrivalPos="95.25" arrivalSpeed="13.24" duration="37.00" routeLength="390.50" waitingTime="0.00" waitingCount="0" stopTime="0.00" timeLoss="8.13" rerouteNo="0" devices="tripinfo_265" vType="DEFAULT_VEHTYPE" speedFactor="1.00" vaporized=""/>
    <tripinfo id="218" depart="220.00" departLane="l2_4_0" departPos="5.10" departSpeed="0.00" departDelay="2.00" arrival="304.00" arrivalLane="l4_1_0" arrivalPos="95.25" arrivalSpeed="5.46" duration="84.00" routeLength="481.35" waitingTime="38.00" waitingCount="1" stopTime="0.00" timeLoss="51.34" rerouteNo="0" devices="tripinfo_218" vType="DEFAULT_VEHTYPE" speedFactor="1.00" vaporized=""/>
    <tripinfo id="287" depart="287.00" departLane="l4_2_0" departPos="5.10" departSpeed="0.00" departDelay="0.00" arrival="306.00" arrivalLane="-l2_2_0" arrivalPos="95.25" arrivalSpeed="10.78" duration="19.00" routeLength="194.90" waitingTime="0.00" waitingCount="0" stopTime="0.00" timeLoss="4.37" rerouteNo="0" devices="tripinfo_287" vType="DEFAULT_VEHTYPE" speedFactor="1.00" vaporized=""/>